       N       E                     dE             d eps       ncg     rms          rms(c)
DAV:   1     0.195614404608E+04    0.19561E+04   -0.93245E+04 92024   0.178E+03
DAV:   2    -0.272459130689E+02   -0.19834E+04   -0.18389E+04 96760   0.518E+02
DAV:   3    -0.254735381053E+03   -0.22749E+03   -0.22413E+03 97176   0.189E+02
DAV:   4    -0.260108709788E+03   -0.53733E+01   -0.52969E+01102096   0.299E+01
DAV:   5    -0.260257852482E+03   -0.14914E+00   -0.14831E+00124040   0.466E+00    0.682E+01
DAV:   6    -0.184309523075E+03    0.75948E+02   -0.14950E+02121880   0.828E+01    0.394E+01
DAV:   7    -0.184871881682E+03   -0.56236E+00   -0.29748E+01116952   0.548E+01    0.294E+01
DAV:   8    -0.183518486841E+03    0.13534E+01   -0.40885E+00114016   0.130E+01    0.129E+01
DAV:   9    -0.183766013712E+03   -0.24753E+00   -0.31065E+00121400   0.123E+01    0.755E+00
DAV:  10    -0.183573641194E+03    0.19237E+00   -0.10956E+00111992   0.724E+00    0.353E+00
DAV:  11    -0.183568773858E+03    0.48673E-02   -0.16687E-01106096   0.243E+00    0.221E+00
DAV:  12    -0.183568657963E+03    0.11590E-03   -0.71552E-02119016   0.168E+00    0.117E+00
DAV:  13    -0.183567202912E+03    0.14551E-02   -0.14616E-02106072   0.813E-01    0.533E-01
DAV:  14    -0.183565742622E+03    0.14603E-02   -0.10994E-02105928   0.613E-01    0.233E-01
DAV:  15    -0.183565851061E+03   -0.10844E-03   -0.18505E-03102664   0.240E-01    0.140E-01
DAV:  16    -0.183565816163E+03    0.34898E-04   -0.38949E-04103040   0.114E-01    0.612E-02
DAV:  17    -0.183565852275E+03   -0.36112E-04   -0.58479E-05 95976   0.345E-02    0.409E-02
DAV:  18    -0.183565862208E+03   -0.99331E-05   -0.30149E-06 54304   0.135E-02
   1 F= -.18356586E+03 E0= -.18356586E+03  d E =-.183566E+03  mag=     0.0005
       N       E                     dE             d eps       ncg     rms          rms(c)
DAV:   1    -0.183566580217E+03   -0.72794E-03   -0.15904E-01104920   0.308E+00    0.392E-01
DAV:   2    -0.183566294242E+03    0.28598E-03   -0.16886E-02 93096   0.658E-01    0.239E-01
DAV:   3    -0.183566248993E+03    0.45249E-04   -0.10443E-03 99112   0.172E-01    0.132E-01
DAV:   4    -0.183566022221E+03    0.22677E-03   -0.24143E-04109088   0.104E-01    0.903E-02
DAV:   5    -0.183566144094E+03   -0.12187E-03   -0.33681E-05 85568   0.417E-02    0.609E-02
DAV:   6    -0.183566111354E+03    0.32740E-04   -0.18487E-05 65160   0.263E-02    0.453E-02
DAV:   7    -0.183566169543E+03   -0.58189E-04   -0.42500E-06 51032   0.134E-02    0.430E-02
DAV:   8    -0.183566157249E+03    0.12295E-04   -0.15470E-06 50360   0.641E-03    0.253E-02
DAV:   9    -0.183566196273E+03   -0.39024E-04   -0.16573E-06 53048   0.845E-03    0.137E-02
DAV:  10    -0.183566208949E+03   -0.12677E-04   -0.75884E-07 47520   0.611E-03    0.979E-03
DAV:  11    -0.183566199864E+03    0.90855E-05   -0.41044E-07 46768   0.356E-03
   2 F= -.18356620E+03 E0= -.18356620E+03  d E =-.337656E-03  mag=     0.0000
       N       E                     dE             d eps       ncg     rms          rms(c)
DAV:   1    -0.183566235717E+03   -0.26768E-04   -0.67506E-03104616   0.635E-01    0.806E-02
DAV:   2    -0.183566317133E+03   -0.81415E-04   -0.71339E-04 92984   0.135E-01    0.489E-02
DAV:   3    -0.183566246231E+03    0.70902E-04   -0.44692E-05 91616   0.360E-02    0.270E-02
DAV:   4    -0.183566260673E+03   -0.14442E-04   -0.86707E-06 51560   0.220E-02    0.200E-02
DAV:   5    -0.183566230415E+03    0.30258E-04   -0.26076E-06 46808   0.105E-02    0.149E-02
DAV:   6    -0.183566233939E+03   -0.35247E-05   -0.11113E-06 46552   0.579E-03
   3 F= -.18356623E+03 E0= -.18356623E+03  d E =-.371732E-03  mag=    -0.0000
       N       E                     dE             d eps       ncg     rms          rms(c)
DAV:   1    -0.183566220154E+03    0.10261E-04   -0.95655E-04104744   0.240E-01    0.331E-02
DAV:   2    -0.183566251149E+03   -0.30995E-04   -0.10084E-04 88640   0.512E-02    0.232E-02
DAV:   3    -0.183566224669E+03    0.26480E-04   -0.60026E-06 46672   0.137E-02    0.133E-02
DAV:   4    -0.183566232338E+03   -0.76694E-05   -0.19289E-06 46488   0.953E-03    0.177E-02
DAV:   5    -0.183566225256E+03    0.70825E-05   -0.42113E-07 46288   0.400E-03    0.153E-02
DAV:   6    -0.183566227804E+03   -0.25485E-05   -0.16090E-07 46328   0.237E-03
   4 F= -.18356623E+03 E0= -.18356623E+03  d E =-.365597E-03  mag=    -0.0000
