       N       E                     dE             d eps       ncg     rms          rms(c)
DAV:   1     0.843314077808E+03    0.84331E+03   -0.37796E+04139040   0.178E+03
DAV:   2    -0.158750117737E+02   -0.85919E+03   -0.81585E+03160768   0.528E+02
DAV:   3    -0.973094997807E+02   -0.81434E+02   -0.80850E+02148704   0.180E+02
DAV:   4    -0.990565636765E+02   -0.17471E+01   -0.17418E+01167416   0.273E+01
DAV:   5    -0.991104571615E+02   -0.53893E-01   -0.53840E-01186760   0.446E+00    0.341E+01
DAV:   6    -0.719323647757E+02    0.27178E+02   -0.48317E+01187144   0.594E+01    0.218E+01
DAV:   7    -0.729951179604E+02   -0.10628E+01   -0.51266E+00157264   0.138E+01    0.152E+01
DAV:   8    -0.732210150496E+02   -0.22590E+00   -0.52758E-01164960   0.682E+00    0.915E+00
DAV:   9    -0.732850630965E+02   -0.64048E-01   -0.13997E-01173944   0.284E+00    0.240E+00
DAV:  10    -0.732873001129E+02   -0.22370E-02   -0.24990E-02161448   0.133E+00    0.674E-01
DAV:  11    -0.732877596646E+02   -0.45955E-03   -0.20459E-03178952   0.383E-01    0.407E-01
DAV:  12    -0.732872681073E+02    0.49156E-03   -0.52367E-04174016   0.206E-01    0.163E-01
DAV:  13    -0.732874985999E+02   -0.23049E-03   -0.56982E-05151840   0.717E-02    0.527E-02
DAV:  14    -0.732875144896E+02   -0.15890E-04   -0.16117E-05106192   0.283E-02    0.334E-02
DAV:  15    -0.732874926904E+02    0.21799E-04   -0.30993E-06 70720   0.185E-02    0.192E-02
DAV:  16    -0.732875098762E+02   -0.17186E-04   -0.10951E-06 69968   0.115E-02    0.632E-03
DAV:  17    -0.732875160926E+02   -0.62164E-05   -0.83326E-07 69888   0.620E-03
   1 F= -.73287516E+02 E0= -.73287516E+02  d E =-.732875E+02  mag=    -0.0000
       N       E                     dE             d eps       ncg     rms          rms(c)
DAV:   1    -0.735567966010E+02   -0.26929E+00   -0.97585E+00138880   0.255E+01    0.465E+00
DAV:   2    -0.733197983561E+02    0.23700E+00   -0.70485E-01138880   0.540E+00    0.233E+00
DAV:   3    -0.732970998847E+02    0.22698E-01   -0.97931E-02141424   0.266E+00    0.971E-01
DAV:   4    -0.732949907782E+02    0.21091E-02   -0.56573E-03161072   0.478E-01    0.495E-01
DAV:   5    -0.732940410096E+02    0.94977E-03   -0.77556E-04155872   0.241E-01    0.229E-01
DAV:   6    -0.732940966104E+02   -0.55601E-04   -0.17287E-04165760   0.133E-01    0.103E-01
DAV:   7    -0.732940710875E+02    0.25523E-04   -0.42896E-05155552   0.600E-02    0.681E-02
DAV:   8    -0.732940925232E+02   -0.21436E-04   -0.31714E-06 73584   0.147E-02    0.412E-02
DAV:   9    -0.732940808906E+02    0.11633E-04   -0.19609E-06 69664   0.950E-03    0.205E-02
DAV:  10    -0.732941010391E+02   -0.20148E-04   -0.13723E-06 69720   0.741E-03    0.656E-03
DAV:  11    -0.732940938970E+02    0.71421E-05   -0.36617E-07 69552   0.427E-03
   2 F= -.73294094E+02 E0= -.73294094E+02  d E =-.657780E-02  mag=     0.0000
       N       E                     dE             d eps       ncg     rms          rms(c)
DAV:   1    -0.733348419534E+02   -0.40741E-01   -0.13148E+00138880   0.932E+00    0.171E+00
DAV:   2    -0.733019205274E+02    0.32921E-01   -0.97215E-02138880   0.200E+00    0.832E-01
DAV:   3    -0.732979285221E+02    0.39920E-02   -0.13789E-02141904   0.997E-01    0.339E-01
DAV:   4    -0.732977782966E+02    0.15023E-03   -0.71306E-04162272   0.172E-01    0.166E-01
DAV:   5    -0.732977927656E+02   -0.14469E-04   -0.11280E-04148768   0.919E-02    0.706E-02
DAV:   6    -0.732977763016E+02    0.16464E-04   -0.15733E-05110872   0.425E-02    0.318E-02
DAV:   7    -0.732977919512E+02   -0.15650E-04   -0.46207E-06 69824   0.203E-02    0.183E-02
DAV:   8    -0.732977852889E+02    0.66623E-05   -0.10856E-06 69728   0.808E-03
   3 F= -.73297785E+02 E0= -.73297785E+02  d E =-.102692E-01  mag=     0.0000
       N       E                     dE             d eps       ncg     rms          rms(c)
DAV:   1    -0.732980865989E+02   -0.29465E-03   -0.98417E-03138880   0.808E-01    0.148E-01
DAV:   2    -0.732978410565E+02    0.24554E-03   -0.72455E-04138912   0.173E-01    0.720E-02
DAV:   3    -0.732977628059E+02    0.78251E-04   -0.10216E-04141840   0.858E-02    0.297E-02
DAV:   4    -0.732977677377E+02   -0.49318E-05   -0.48621E-06 69528   0.151E-02    0.145E-02
DAV:   5    -0.732977749725E+02   -0.72348E-05   -0.15244E-06 69496   0.103E-02    0.680E-03
DAV:   6    -0.732977746358E+02    0.33670E-06   -0.31453E-07 69520   0.639E-03
   4 F= -.73297775E+02 E0= -.73297775E+02  d E =-.102585E-01  mag=     0.0000
       N       E                     dE             d eps       ncg     rms          rms(c)
DAV:   1    -0.732992582554E+02   -0.14833E-02   -0.43039E-01138880   0.436E+00    0.383E-01
DAV:   2    -0.732991190514E+02    0.13920E-03   -0.11515E-02138880   0.697E-01    0.227E-01
DAV:   3    -0.732989193107E+02    0.19974E-03   -0.44123E-04166656   0.170E-01    0.117E-01
DAV:   4    -0.732989341474E+02   -0.14837E-04   -0.48857E-05124872   0.400E-02    0.123E-01
DAV:   5    -0.732989331172E+02    0.10303E-05   -0.50017E-06 72416   0.185E-02    0.953E-02
DAV:   6    -0.732989415129E+02   -0.83957E-05   -0.10355E-05110360   0.292E-02
   5 F= -.73298942E+02 E0= -.73298942E+02  d E =-.116688E-02  mag=     0.0000
       N       E                     dE             d eps       ncg     rms          rms(c)
DAV:   1    -0.733059792733E+02   -0.70462E-02   -0.38694E+00138880   0.131E+01    0.113E+00
DAV:   2    -0.733030653373E+02    0.29139E-02   -0.10499E-01138880   0.210E+00    0.656E-01
DAV:   3    -0.733017625306E+02    0.13028E-02   -0.38957E-03166664   0.527E-01    0.343E-01
DAV:   4    -0.733017926569E+02   -0.30126E-04   -0.47458E-04181872   0.123E-01    0.365E-01
DAV:   5    -0.733017904975E+02    0.21594E-05   -0.23703E-05125272   0.435E-02    0.282E-01
DAV:   6    -0.733018018736E+02   -0.11376E-04   -0.87275E-05166560   0.805E-02    0.589E-02
DAV:   7    -0.733018343542E+02   -0.32481E-04   -0.29746E-05101184   0.383E-02    0.330E-02
DAV:   8    -0.733018434399E+02   -0.90857E-05   -0.67226E-06 79024   0.191E-02
   6 F= -.73301843E+02 E0= -.73301843E+02  d E =-.406880E-02  mag=     0.0000
       N       E                     dE             d eps       ncg     rms          rms(c)
DAV:   1    -0.733308135335E+02   -0.28979E-01   -0.15492E+01138880   0.261E+01    0.225E+00
DAV:   2    -0.733094168220E+02    0.21397E-01   -0.43486E-01138880   0.428E+00    0.128E+00
DAV:   3    -0.733047168068E+02    0.47000E-02   -0.15174E-02166808   0.109E+00    0.646E-01
DAV:   4    -0.733046963695E+02    0.20437E-04   -0.20065E-03179992   0.266E-01    0.696E-01
DAV:   5    -0.733047060886E+02   -0.97191E-05   -0.12278E-04185944   0.893E-02    0.538E-01
DAV:   6    -0.733046317167E+02    0.74372E-04   -0.23486E-04166568   0.138E-01    0.151E-01
DAV:   7    -0.733047300484E+02   -0.98332E-04   -0.11815E-04171984   0.721E-02    0.544E-02
DAV:   8    -0.733047495284E+02   -0.19480E-04   -0.24027E-05108264   0.342E-02    0.298E-02
DAV:   9    -0.733047663599E+02   -0.16831E-04   -0.62517E-06 70648   0.165E-02    0.118E-02
DAV:  10    -0.733047622716E+02    0.40882E-05   -0.18468E-06 69640   0.979E-03
   7 F= -.73304762E+02 E0= -.73304762E+02  d E =-.698764E-02  mag=    -0.0000
