       N       E                     dE             d eps       ncg     rms          rms(c)
DAV:   1     0.651048803152E+03    0.65105E+03   -0.29529E+04 92991   0.170E+03
DAV:   2    -0.193429701673E+02   -0.67039E+03   -0.64128E+03106377   0.512E+02
DAV:   3    -0.787308688382E+02   -0.59388E+02   -0.58719E+02103599   0.166E+02
DAV:   4    -0.799546825971E+02   -0.12238E+01   -0.12190E+01110952   0.249E+01
DAV:   5    -0.799908722533E+02   -0.36190E-01   -0.36182E-01123018   0.400E+00    0.197E+01
DAV:   6    -0.649908573707E+02    0.15000E+02   -0.28790E+01117312   0.422E+01    0.160E+01
DAV:   7    -0.658232131971E+02   -0.83236E+00   -0.40296E+00116235   0.134E+01    0.105E+01
DAV:   8    -0.660575312486E+02   -0.23432E+00   -0.52805E-01105909   0.692E+00    0.575E+00
DAV:   9    -0.660930833550E+02   -0.35552E-01   -0.15295E-01116751   0.345E+00    0.322E+00
DAV:  10    -0.661147206322E+02   -0.21637E-01   -0.23987E-02108732   0.132E+00    0.157E+00
DAV:  11    -0.661226604592E+02   -0.79398E-02   -0.59053E-03114924   0.602E-01    0.973E-01
DAV:  12    -0.661217653669E+02    0.89509E-03   -0.43235E-03120933   0.508E-01    0.224E-01
DAV:  13    -0.661228125714E+02   -0.10472E-02   -0.27593E-04113616   0.125E-01    0.148E-01
DAV:  14    -0.661234868405E+02   -0.67427E-03   -0.62862E-05104670   0.538E-02    0.579E-02
DAV:  15    -0.661233427658E+02    0.14407E-03   -0.14398E-05 63813   0.293E-02    0.199E-02
DAV:  16    -0.661236408195E+02   -0.29805E-03   -0.44197E-06 59148   0.193E-02    0.783E-03
DAV:  17    -0.661236027238E+02    0.38096E-04   -0.19884E-06 52416   0.103E-02    0.364E-03
DAV:  18    -0.661235799861E+02    0.22738E-04   -0.72520E-07 48066   0.595E-03    0.212E-03
DAV:  19    -0.661235832797E+02   -0.32936E-05   -0.23133E-07 47772   0.334E-03
   1 F= -.66123583E+02 E0= -.66123583E+02  d E =-.661236E+02  mag=     0.0000
       N       E                     dE             d eps       ncg     rms          rms(c)
DAV:   1    -0.661423549348E+02   -0.18775E-01   -0.39048E+00 95892   0.149E+01    0.159E+00
DAV:   2    -0.661257408985E+02    0.16614E-01   -0.14418E-01101070   0.291E+00    0.945E-01
DAV:   3    -0.661286211666E+02   -0.28803E-02   -0.14346E-02111897   0.901E-01    0.444E-01
DAV:   4    -0.661283913005E+02    0.22987E-03   -0.92815E-04134835   0.220E-01    0.281E-01
DAV:   5    -0.661281065339E+02    0.28477E-03   -0.25878E-04134928   0.112E-01    0.220E-01
DAV:   6    -0.661289215551E+02   -0.81502E-03   -0.27380E-04126492   0.104E-01    0.119E-01
DAV:   7    -0.661286912279E+02    0.23033E-03   -0.91723E-05136224   0.661E-02    0.253E-02
DAV:   8    -0.661287091220E+02   -0.17894E-04   -0.71586E-06 71424   0.175E-02    0.161E-02
DAV:   9    -0.661286858743E+02    0.23248E-04   -0.23726E-06 68178   0.969E-03    0.103E-02
DAV:  10    -0.661286977596E+02   -0.11885E-04   -0.10281E-05 47568   0.143E-02    0.419E-03
DAV:  11    -0.661286812779E+02    0.16482E-04   -0.16314E-06 48180   0.688E-03    0.278E-03
DAV:  12    -0.661286803402E+02    0.93774E-06   -0.77934E-07 46866   0.430E-03
   2 F= -.66128680E+02 E0= -.66128680E+02  d E =-.509706E-02  mag=    -0.0000
       N       E                     dE             d eps       ncg     rms          rms(c)
DAV:   1    -0.661292964993E+02   -0.61522E-03   -0.11090E-01 94626   0.250E+00    0.267E-01
DAV:   2    -0.661278152704E+02    0.14812E-02   -0.40778E-03115032   0.486E-01    0.155E-01
DAV:   3    -0.661286184863E+02   -0.80322E-03   -0.42739E-04112248   0.158E-01    0.765E-02
DAV:   4    -0.661285767831E+02    0.41703E-04   -0.27841E-05102744   0.385E-02    0.454E-02
DAV:   5    -0.661285623318E+02    0.14451E-04   -0.83121E-06 70320   0.221E-02    0.372E-02
DAV:   6    -0.661286850404E+02   -0.12271E-03   -0.10434E-05 73458   0.211E-02    0.179E-02
DAV:   7    -0.661286583984E+02    0.26642E-04   -0.32039E-06 47268   0.130E-02    0.452E-03
DAV:   8    -0.661286470993E+02    0.11299E-04   -0.66131E-07 48246   0.593E-03    0.278E-03
DAV:   9    -0.661286576506E+02   -0.10551E-04   -0.23498E-07 46692   0.321E-03    0.188E-03
DAV:  10    -0.661286502164E+02    0.74341E-05   -0.72320E-07 46620   0.406E-03
   3 F= -.66128650E+02 E0= -.66128650E+02  d E =-.506694E-02  mag=    -0.0000
       N       E                     dE             d eps       ncg     rms          rms(c)
DAV:   1    -0.661447989126E+02   -0.16141E-01   -0.10733E+00 98628   0.832E+00    0.108E+00
DAV:   2    -0.661351667958E+02    0.96321E-02   -0.53408E-02 98472   0.177E+00    0.586E-01
DAV:   3    -0.661297660259E+02    0.54008E-02   -0.75120E-03112410   0.631E-01    0.228E-01
DAV:   4    -0.661296613350E+02    0.10469E-03   -0.25284E-04121494   0.119E-01    0.154E-01
DAV:   5    -0.661302080493E+02   -0.54671E-03   -0.11443E-04131790   0.862E-02    0.107E-01
DAV:   6    -0.661299221848E+02    0.28586E-03   -0.31333E-05 89676   0.435E-02    0.706E-02
DAV:   7    -0.661300301267E+02   -0.10794E-03   -0.98766E-06 81726   0.261E-02    0.197E-02
DAV:   8    -0.661301937491E+02   -0.16362E-03   -0.36027E-06 48222   0.163E-02    0.593E-03
DAV:   9    -0.661301676363E+02    0.26113E-04   -0.74812E-07 47412   0.745E-03    0.307E-03
DAV:  10    -0.661301695397E+02   -0.19034E-05   -0.35886E-07 47112   0.457E-03
   4 F= -.66130170E+02 E0= -.66130170E+02  d E =-.151932E-02  mag=    -0.0000
       N       E                     dE             d eps       ncg     rms          rms(c)
DAV:   1    -0.661525714997E+02   -0.22404E-01   -0.16071E+00 98436   0.102E+01    0.133E+00
DAV:   2    -0.661368773530E+02    0.15694E-01   -0.79883E-02 98364   0.216E+00    0.719E-01
DAV:   3    -0.661299909118E+02    0.68864E-02   -0.11259E-02110976   0.773E-01    0.279E-01
DAV:   4    -0.661298132055E+02    0.17771E-03   -0.38015E-04118965   0.143E-01    0.185E-01
DAV:   5    -0.661304518512E+02   -0.63865E-03   -0.16488E-04121110   0.104E-01    0.128E-01
DAV:   6    -0.661300966261E+02    0.35523E-03   -0.45143E-05 96546   0.509E-02    0.849E-02
DAV:   7    -0.661302326958E+02   -0.13607E-03   -0.11998E-05 77064   0.298E-02    0.228E-02
DAV:   8    -0.661304209215E+02   -0.18823E-03   -0.52774E-06 48708   0.196E-02    0.707E-03
DAV:   9    -0.661303983495E+02    0.22572E-04   -0.81377E-07 47628   0.847E-03    0.389E-03
DAV:  10    -0.661304025230E+02   -0.41736E-05   -0.36560E-07 47250   0.480E-03
   5 F= -.66130403E+02 E0= -.66130403E+02  d E =-.175231E-02  mag=    -0.0000
       N       E                     dE             d eps       ncg     rms          rms(c)
DAV:   1    -0.661349567648E+02   -0.45584E-02   -0.74866E-01 92928   0.641E+00    0.749E-01
DAV:   2    -0.661333019578E+02    0.16548E-02   -0.20727E-02103320   0.116E+00    0.460E-01
DAV:   3    -0.661309533826E+02    0.23486E-02   -0.16626E-03118257   0.333E-01    0.201E-01
DAV:   4    -0.661311255461E+02   -0.17216E-03   -0.49686E-04138168   0.140E-01    0.156E-01
DAV:   5    -0.661312582523E+02   -0.13271E-03   -0.13105E-04124866   0.692E-02    0.126E-01
DAV:   6    -0.661315601894E+02   -0.30194E-03   -0.17139E-04 89508   0.579E-02    0.466E-02
DAV:   7    -0.661315823482E+02   -0.22159E-04   -0.37680E-05 93786   0.336E-02    0.184E-02
DAV:   8    -0.661316538951E+02   -0.71547E-04   -0.39555E-06 59388   0.146E-02    0.114E-02
DAV:   9    -0.661316607176E+02   -0.68225E-05   -0.48311E-06 48768   0.123E-02
   6 F= -.66131661E+02 E0= -.66131661E+02  d E =-.125819E-02  mag=    -0.0000
       N       E                     dE             d eps       ncg     rms          rms(c)
DAV:   1    -0.661425203236E+02   -0.10866E-01   -0.22186E+00 92928   0.110E+01    0.128E+00
DAV:   2    -0.661363121004E+02    0.62082E-02   -0.61496E-02102372   0.199E+00    0.787E-01
DAV:   3    -0.661311884401E+02    0.51237E-02   -0.50726E-03121464   0.576E-01    0.342E-01
DAV:   4    -0.661313769867E+02   -0.18855E-03   -0.14697E-03130914   0.237E-01    0.265E-01
DAV:   5    -0.661316088280E+02   -0.23184E-03   -0.39889E-04125532   0.117E-01    0.214E-01
DAV:   6    -0.661321879546E+02   -0.57913E-03   -0.53682E-04118590   0.969E-02    0.805E-02
DAV:   7    -0.661322431829E+02   -0.55228E-04   -0.12026E-04114390   0.554E-02    0.366E-02
DAV:   8    -0.661323763021E+02   -0.13312E-03   -0.11991E-05 79674   0.220E-02    0.219E-02
DAV:   9    -0.661324042681E+02   -0.27966E-04   -0.19910E-05 69132   0.232E-02    0.945E-03
DAV:  10    -0.661324150215E+02   -0.10753E-04   -0.31898E-06 48654   0.104E-02    0.588E-03
DAV:  11    -0.661324125033E+02    0.25182E-05   -0.16858E-06 47520   0.659E-03
   7 F= -.66132413E+02 E0= -.66132413E+02  d E =-.200998E-02  mag=     0.0000
       N       E                     dE             d eps       ncg     rms          rms(c)
DAV:   1    -0.661344585774E+02   -0.20436E-02   -0.11637E-01 92928   0.259E+00    0.583E-01
DAV:   2    -0.661334445442E+02    0.10140E-02   -0.22544E-03112902   0.459E-01    0.376E-01
DAV:   3    -0.661337479167E+02   -0.30337E-03   -0.35285E-04120099   0.188E-01    0.165E-01
DAV:   4    -0.661334598012E+02    0.28812E-03   -0.15822E-04131892   0.806E-02    0.121E-01
DAV:   5    -0.661335354086E+02   -0.75607E-04   -0.42086E-05 97494   0.533E-02    0.131E-01
DAV:   6    -0.661333095794E+02    0.22583E-03   -0.63304E-05 84342   0.547E-02    0.220E-02
DAV:   7    -0.661332361735E+02    0.73406E-04   -0.65203E-06 56046   0.225E-02    0.673E-03
DAV:   8    -0.661332331995E+02    0.29740E-05   -0.10759E-06 46944   0.885E-03
   8 F= -.66133233E+02 E0= -.66133233E+02  d E =-.820696E-03  mag=     0.0000
