       N       E                     dE             d eps       ncg     rms          rms(c)
DAV:   1     0.698943461018E+03    0.69894E+03   -0.31278E+04100605   0.186E+03
DAV:   2    -0.413653523838E+01   -0.70308E+03   -0.65650E+03107604   0.547E+02
DAV:   3    -0.784919942692E+02   -0.74355E+02   -0.73516E+02110652   0.188E+02
DAV:   4    -0.800893899382E+02   -0.15974E+01   -0.15923E+01113823   0.296E+01
DAV:   5    -0.801163865622E+02   -0.26997E-01   -0.26992E-01108039   0.426E+00    0.195E+01
DAV:   6    -0.654403990894E+02    0.14676E+02   -0.18850E+01118566   0.392E+01    0.182E+01
DAV:   7    -0.661001951682E+02   -0.65980E+00   -0.39804E+00113280   0.133E+01    0.123E+01
DAV:   8    -0.660583193137E+02    0.41876E-01   -0.93922E-01115926   0.820E+00    0.624E+00
DAV:   9    -0.665593756574E+02   -0.50106E+00   -0.19153E-01113973   0.538E+00    0.131E+00
DAV:  10    -0.666562363849E+02   -0.96861E-01   -0.42215E-02105918   0.311E+00    0.297E-01
DAV:  11    -0.666556876973E+02    0.54869E-03   -0.13765E-02111837   0.723E-01    0.142E-01
DAV:  12    -0.666567758597E+02   -0.10882E-02   -0.80226E-04109785   0.273E-01    0.602E-02
DAV:  13    -0.666566110537E+02    0.16481E-03   -0.26060E-04112047   0.154E-01    0.300E-02
DAV:  14    -0.666567122707E+02   -0.10122E-03   -0.27879E-05 92532   0.557E-02    0.182E-02
DAV:  15    -0.666566587472E+02    0.53523E-04   -0.22571E-05 70899   0.321E-02    0.695E-03
DAV:  16    -0.666566391760E+02    0.19571E-04   -0.23306E-06 52455   0.140E-02    0.138E-03
DAV:  17    -0.666566379739E+02    0.12020E-05   -0.77783E-07 51792   0.675E-03
   1 F= -.66656638E+02 E0= -.66656638E+02  d E =-.666566E+02  mag=     0.0000
