       N       E                     dE             d eps       ncg     rms          ort
DAV:   1     0.196826800226E+04    0.19683E+04   -0.98239E+04 22656   0.183E+03
DAV:   2    -0.436810598394E+01   -0.19726E+04   -0.18309E+04 22656   0.516E+02
DAV:   3    -0.232561964932E+03   -0.22819E+03   -0.22482E+03 22656   0.189E+02
DAV:   4    -0.238170104886E+03   -0.56081E+01   -0.55297E+01 22656   0.306E+01
DAV:   5    -0.238337989606E+03   -0.16788E+00   -0.16698E+00 22656   0.491E+00
SDA:   6    -0.752678956220E+02    0.16307E+03   -0.16698E+00 22656   0.501E+03 0.000E+00
CGA:   7    -0.128824777585E+03   -0.53557E+02   -0.58884E+02 22656   0.742E+03 0.224E-01
CGA:   8    -0.131583514513E+03   -0.27587E+01   -0.36922E+02 22656   0.136E+03-0.223E+03
CGA:   9    -0.138535251216E+03   -0.69517E+01   -0.52233E+01 22656   0.176E+03 0.744E+01
CGA:  10    -0.150845648683E+03   -0.12310E+02   -0.13728E+02 22656   0.462E+02-0.244E+02
CGA:  11    -0.151694402241E+03   -0.84875E+00   -0.13155E+01 22656   0.771E+02-0.196E+02
CGA:  12    -0.149166315011E+03    0.25281E+01   -0.13938E+01 22656   0.641E+03-0.274E+03
CGA:  13    -0.145318705296E+03    0.38476E+01   -0.44426E+02 22656   0.628E+03-0.325E+03
CGA:  14    -0.136976254569E+03    0.83425E+01   -0.40019E+02 22656   0.204E+03-0.141E+03
CGA:  15    -0.152308519097E+03   -0.15332E+02   -0.65623E+01 22656   0.186E+03-0.375E+03
CGA:  16    -0.155783665600E+03   -0.34751E+01   -0.75915E+01 22656   0.116E+03-0.111E+03
CGA:  17    -0.156616629591E+03   -0.83296E+00   -0.50733E+01 22656   0.296E+02-0.336E+02
CGA:  18    -0.157379202432E+03   -0.76257E+00   -0.81731E+00 22656   0.264E+01 0.235E-01
CGA:  19    -0.157649544551E+03   -0.27034E+00   -0.22150E+00 22656   0.495E+01-0.962E-01
CGA:  20    -0.157903872753E+03   -0.25433E+00   -0.46770E+00 22656   0.128E+02 0.305E+01
CGA:  21    -0.157701453919E+03    0.20242E+00   -0.67220E+00 22656   0.218E+02-0.737E+01
CGA:  22    -0.157571731033E+03    0.12972E+00   -0.68993E+00 22656   0.414E+02-0.340E+02
CGA:  23    -0.157373246670E+03    0.19848E+00   -0.16293E+01 22656   0.117E+02-0.877E+01
CGA:  24    -0.157867024438E+03   -0.49378E+00   -0.13768E+00 22656   0.194E+02 0.225E+02
CGA:  25    -0.157861989128E+03    0.50353E-02   -0.56015E+00 22656   0.304E+02-0.287E+02
CGA:  26    -0.157518245912E+03    0.34374E+00   -0.12634E+01 22656   0.134E+02-0.876E+01
CGA:  27    -0.158017738655E+03   -0.49949E+00   -0.15480E+00 22656   0.175E+02 0.199E+02
CGA:  28    -0.158049254836E+03   -0.31516E-01   -0.44336E+00 22656   0.259E+02-0.259E+02
CGA:  29    -0.157703134356E+03    0.34612E+00   -0.98763E+00 22656   0.165E+02-0.103E+02
CGA:  30    -0.158255161010E+03   -0.55203E+00   -0.19892E+00 22656   0.115E+02 0.142E+02
CGA:  31    -0.158359739391E+03   -0.10458E+00   -0.22525E+00 22656   0.703E+01-0.943E+01
CGA:  32    -0.158327590342E+03    0.32149E-01   -0.19110E+00 22656   0.970E+01-0.647E+01
CGA:  33    -0.158445907268E+03   -0.11832E+00   -0.16374E+00 22656   0.260E+01-0.459E+01
CGA:  34    -0.158511928198E+03   -0.66021E-01   -0.70259E-01 22656   0.139E+01-0.122E-01
CGA:  35    -0.158553211042E+03   -0.41283E-01   -0.41526E-01 22656   0.114E+01-0.232E-01
CGA:  36    -0.158672303130E+03   -0.11909E+00   -0.11305E+00 22656   0.197E+01 0.178E+00
CGA:  37    -0.158754383782E+03   -0.82081E-01   -0.92535E-01 22656   0.825E+00 0.527E-01
CGA:  38    -0.158785161421E+03   -0.30778E-01   -0.32861E-01 22656   0.475E+00-0.261E-01
CGA:  39    -0.158830707022E+03   -0.45546E-01   -0.44883E-01 22656   0.105E+01 0.172E-01
CGA:  40    -0.158922342735E+03   -0.91636E-01   -0.90659E-01 22656   0.847E+00 0.673E-01
CGA:  41    -0.158966181369E+03   -0.43839E-01   -0.43147E-01 22656   0.599E+00-0.652E-03
CGA:  42    -0.159099326812E+03   -0.13315E+00   -0.11034E+00 22656   0.668E+00 0.201E+00
CGA:  43    -0.159154693505E+03   -0.55367E-01   -0.55720E-01 22656   0.951E+00-0.158E-03
CGA:  44    -0.159310373126E+03   -0.15568E+00    0.77947E+00 22656   0.105E+01 0.113E+01
CGA:  45    -0.159404189067E+03   -0.93816E-01   -0.90014E-01 22656   0.881E+00 0.281E+00
CGA:  46    -0.159592899778E+03   -0.18871E+00    0.58256E+00 22656   0.857E+00 0.127E+01
CGA:  47    -0.159814795652E+03   -0.22190E+00   -0.19817E+00 22656   0.467E+00 0.247E+00
CGA:  48    -0.159929521261E+03   -0.11473E+00   -0.97974E-01 22656   0.111E+00 0.205E+00
CGA:  49    -0.160008051325E+03   -0.78530E-01   -0.64145E-01 22656   0.411E-01 0.520E-01
CGA:  50    -0.160037572036E+03   -0.29521E-01   -0.27124E-01 22656   0.301E-01 0.776E-02
CGA:  51    -0.160050076959E+03   -0.12505E-01   -0.12405E-01 22656   0.141E-01 0.446E-03
CGA:  52    -0.160053534007E+03   -0.34570E-02   -0.34427E-02 22656   0.774E-02 0.136E-03
CGA:  53    -0.160055997833E+03   -0.24638E-02   -0.24339E-02 22656   0.474E-02 0.172E-03
CGA:  54    -0.160057743329E+03   -0.17455E-02   -0.17279E-02 22656   0.220E-02 0.811E-04
CGA:  55    -0.160058485059E+03   -0.74173E-03   -0.75280E-03 22656   0.161E-02-0.637E-04
CGA:  56    -0.160059110808E+03   -0.62575E-03   -0.65991E-03 22656   0.127E-02-0.135E-03
CGA:  57    -0.160059536948E+03   -0.42614E-03   -0.45076E-03 22656   0.883E-03-0.119E-03
CGA:  58    -0.160059906743E+03   -0.36979E-03   -0.42671E-03 22656   0.102E-02-0.165E-03
CGA:  59    -0.160060263068E+03   -0.35633E-03   -0.43434E-03 22656   0.979E-03-0.240E-03
CGA:  60    -0.160060515939E+03   -0.25287E-03   -0.27467E-03 22656   0.638E-03-0.161E-03
CGA:  61    -0.160060732774E+03   -0.21683E-03   -0.25590E-03 22656   0.589E-03-0.157E-03
CGA:  62    -0.160060893100E+03   -0.16033E-03   -0.17638E-03 22656   0.395E-03-0.103E-03
CGA:  63    -0.160061001231E+03   -0.10813E-03   -0.11076E-03 22656   0.253E-03-0.296E-04
CGA:  64    -0.160061098836E+03   -0.97606E-04   -0.96693E-04 22656   0.223E-03 0.570E-05
CGA:  65    -0.160061182686E+03   -0.83850E-04   -0.81870E-04 22656   0.161E-03 0.203E-04
CGA:  66    -0.160061249459E+03   -0.66773E-04   -0.64240E-04 22656   0.104E-03 0.255E-04
CGA:  67    -0.160061291040E+03   -0.41581E-04   -0.40040E-04 22656   0.733E-04 0.260E-04
CGA:  68    -0.160061322447E+03   -0.31407E-04   -0.30105E-04 22656   0.493E-04 0.246E-04
CGA:  69    -0.160061347678E+03   -0.25231E-04   -0.23724E-04 22656   0.362E-04 0.184E-04
CGA:  70    -0.160061365111E+03   -0.17432E-04   -0.16802E-04 22656   0.266E-04 0.114E-04
CGA:  71    -0.160061378964E+03   -0.13853E-04   -0.13096E-04 22656   0.190E-04 0.867E-05
CGA:  72    -0.160061389494E+03   -0.10530E-04   -0.10060E-04 22656   0.185E-04 0.449E-05
CGA:  73    -0.160061398474E+03   -0.89796E-05   -0.88363E-05 22656   0.153E-04 0.189E-05
   1 F= -.16006140E+03 E0= -.16006140E+03  d E =-.160061E+03  mag=    -0.0000
       N       E                     dE             d eps       ncg     rms          ort
SDA:   1    -0.160042611151E+03    0.18778E-01    0.00000E+00 22656   0.546E-01 0.000E+00
CGA:   2    -0.160055673631E+03   -0.13062E-01   -0.13076E-01 22656   0.245E-01 0.186E-03
CGA:   3    -0.160060508876E+03   -0.48352E-02   -0.48493E-02 22656   0.570E-02 0.133E-03
CGA:   4    -0.160061420683E+03   -0.91181E-03   -0.91248E-03 22656   0.124E-02 0.551E-05
CGA:   5    -0.160061661828E+03   -0.24114E-03   -0.24336E-03 22656   0.303E-03 0.236E-04
CGA:   6    -0.160061724009E+03   -0.62181E-04   -0.64092E-04 22656   0.770E-04 0.246E-04
CGA:   7    -0.160061742159E+03   -0.18150E-04   -0.18823E-04 22656   0.252E-04 0.121E-04
CGA:   8    -0.160061748573E+03   -0.64139E-05   -0.67648E-05 22656   0.935E-05 0.741E-05
   2 F= -.16006175E+03 E0= -.16006175E+03  d E =-.350099E-03  mag=    -0.0000
       N       E                     dE             d eps       ncg     rms          ort
SDA:   1    -0.160060912444E+03    0.82971E-03    0.00000E+00 22656   0.238E-02 0.000E+00
CGA:   2    -0.160061499179E+03   -0.58673E-03   -0.58549E-03 22656   0.111E-02-0.451E-04
CGA:   3    -0.160061720962E+03   -0.22178E-03   -0.21961E-03 22656   0.263E-03-0.312E-04
CGA:   4    -0.160061761300E+03   -0.40337E-04   -0.40228E-04 22656   0.584E-04-0.103E-05
CGA:   5    -0.160061773964E+03   -0.12664E-04   -0.12345E-04 22656   0.182E-04-0.635E-05
CGA:   6    -0.160061778640E+03   -0.46759E-05   -0.61048E-05 22656   0.222E-04-0.124E-04
   3 F= -.16006178E+03 E0= -.16006178E+03  d E =-.380167E-03  mag=    -0.0000
