       N       E                     dE             d eps       ncg     rms          rms(c)
DAV:   1     0.195847768674E+04    0.19585E+04   -0.93172E+04 91984   0.177E+03
DAV:   2    -0.205661424394E+02   -0.19790E+04   -0.18369E+04 96848   0.517E+02
DAV:   3    -0.248897077529E+03   -0.22833E+03   -0.22498E+03 97376   0.189E+02
DAV:   4    -0.254312595899E+03   -0.54155E+01   -0.53382E+01102120   0.300E+01
DAV:   5    -0.254462975270E+03   -0.15038E+00   -0.14923E+00123576   0.470E+00    0.667E+01
DAV:   6    -0.178681605851E+03    0.75781E+02   -0.15953E+02121944   0.827E+01    0.396E+01
DAV:   7    -0.179731898580E+03   -0.10503E+01   -0.28001E+01118464   0.507E+01    0.281E+01
DAV:   8    -0.178988495881E+03    0.74340E+00   -0.40244E+00114944   0.126E+01    0.134E+01
DAV:   9    -0.179379331671E+03   -0.39084E+00   -0.30916E+00122056   0.130E+01    0.834E+00
DAV:  10    -0.179147457874E+03    0.23187E+00   -0.11602E+00110416   0.795E+00    0.390E+00
DAV:  11    -0.179154137301E+03   -0.66794E-02   -0.18799E-01104920   0.247E+00    0.250E+00
DAV:  12    -0.179158317144E+03   -0.41798E-02   -0.57655E-02105456   0.137E+00    0.122E+00
DAV:  13    -0.179155555051E+03    0.27621E-02   -0.16291E-02119608   0.956E-01    0.580E-01
DAV:  14    -0.179154103839E+03    0.14512E-02   -0.86496E-03103952   0.526E-01    0.198E-01
DAV:  15    -0.179154280439E+03   -0.17660E-03   -0.15532E-03109440   0.226E-01    0.127E-01
DAV:  16    -0.179154080816E+03    0.19962E-03   -0.35027E-04104848   0.114E-01    0.398E-02
DAV:  17    -0.179154139852E+03   -0.59036E-04   -0.31022E-05 81240   0.271E-02    0.237E-02
DAV:  18    -0.179154200383E+03   -0.60531E-04   -0.61471E-06 55560   0.172E-02    0.182E-02
DAV:  19    -0.179154173685E+03    0.26698E-04   -0.44916E-06 52760   0.115E-02    0.110E-02
DAV:  20    -0.179154173147E+03    0.53861E-06   -0.72203E-07 48672   0.583E-03
   1 F= -.17915417E+03 E0= -.17915417E+03  d E =-.179154E+03  mag=    -0.0000
