       N       E                     dE             d eps       ncg     rms          rms(c)
DAV:   1     0.771923345472E+03    0.77192E+03   -0.33135E+04100653   0.214E+03
DAV:   2     0.297352303375E+02   -0.74219E+03   -0.70135E+03103503   0.613E+02
DAV:   3    -0.624687805835E+02   -0.92204E+02   -0.90576E+02116484   0.216E+02
DAV:   4    -0.655761012689E+02   -0.31073E+01   -0.30485E+01110904   0.385E+01
DAV:   5    -0.656353486163E+02   -0.59247E-01   -0.58888E-01110478   0.567E+00    0.234E+01
DAV:   6    -0.491267439133E+02    0.16509E+02   -0.66445E+01117999   0.737E+01    0.309E+01
DAV:   7    -0.526855643848E+02   -0.35588E+01   -0.55976E+00103548   0.297E+01    0.164E+01
DAV:   8    -0.527450028156E+02   -0.59438E-01   -0.10678E+00111498   0.142E+01    0.108E+01
DAV:   9    -0.532922560616E+02   -0.54725E+00   -0.66958E-01114345   0.145E+01    0.223E+00
DAV:  10    -0.533344095588E+02   -0.42153E-01   -0.19617E-01104487   0.405E+00    0.692E-01
DAV:  11    -0.533430315406E+02   -0.86220E-02   -0.23556E-02113178   0.203E+00    0.354E-01
DAV:  12    -0.533432927927E+02   -0.26125E-03   -0.55663E-03112032   0.564E-01    0.260E-01
DAV:  13    -0.533443917328E+02   -0.10989E-02   -0.10576E-02105252   0.768E-01    0.225E-01
DAV:  14    -0.533448218994E+02   -0.43017E-03   -0.18118E-03124761   0.235E-01    0.158E-01
DAV:  15    -0.533449019654E+02   -0.80066E-04   -0.91816E-04105348   0.169E-01    0.746E-02
DAV:  16    -0.533452630509E+02   -0.36109E-03   -0.51100E-03114684   0.316E-01    0.955E-02
DAV:  17    -0.533453558115E+02   -0.92761E-04   -0.14361E-03122262   0.146E-01    0.784E-02
DAV:  18    -0.533453775070E+02   -0.21696E-04   -0.23355E-04 99720   0.820E-02    0.235E-02
DAV:  19    -0.533453936903E+02   -0.16183E-04   -0.36353E-05 64968   0.320E-02    0.556E-03
DAV:  20    -0.533453947843E+02   -0.10941E-05   -0.95192E-06 52818   0.151E-02
   1 F= -.53345395E+02 E0= -.53345395E+02  d E =-.533454E+02  mag=    -0.0000
       N       E                     dE             d eps       ncg     rms          rms(c)
DAV:   1    -0.533988505658E+02   -0.53457E-01   -0.15811E+00107964   0.127E+01    0.201E+00
DAV:   2    -0.533518497104E+02    0.47001E-01   -0.16566E-01108510   0.410E+00    0.131E+00
DAV:   3    -0.533498182869E+02    0.20314E-02   -0.11767E-02113304   0.115E+00    0.588E-01
DAV:   4    -0.533484634077E+02    0.13549E-02   -0.10367E-03115176   0.328E-01    0.335E-01
DAV:   5    -0.533478906634E+02    0.57274E-03   -0.98225E-04119358   0.250E-01    0.511E-02
DAV:   6    -0.533479288859E+02   -0.38222E-04   -0.11639E-04104967   0.893E-02    0.250E-02
DAV:   7    -0.533479239734E+02    0.49125E-05   -0.44406E-05 62994   0.364E-02
   2 F= -.53347924E+02 E0= -.53347924E+02  d E =-.252919E-02  mag=    -0.0000
       N       E                     dE             d eps       ncg     rms          rms(c)
DAV:   1    -0.533479685383E+02   -0.39652E-04   -0.12200E-03108366   0.348E-01    0.605E-02
DAV:   2    -0.533479411104E+02    0.27428E-04   -0.15029E-04108612   0.114E-01    0.388E-02
DAV:   3    -0.533479295418E+02    0.11569E-04   -0.12826E-05 59328   0.348E-02    0.175E-02
DAV:   4    -0.533479303506E+02   -0.80885E-06   -0.70871E-06 54912   0.155E-02    0.110E-02
DAV:   5    -0.533479300587E+02    0.29188E-06   -0.20053E-05 54654   0.198E-02    0.378E-03
DAV:   6    -0.533479309914E+02   -0.93270E-06   -0.28492E-06 52674   0.880E-03
   3 F= -.53347931E+02 E0= -.53347931E+02  d E =-.253621E-02  mag=     0.0000
       N       E                     dE             d eps       ncg     rms          rms(c)
DAV:   1    -0.533479451561E+02   -0.15097E-04   -0.36905E-04111258   0.194E-01    0.305E-02
DAV:   2    -0.533479286438E+02    0.16512E-04   -0.38877E-05 97158   0.631E-02    0.198E-02
DAV:   3    -0.533479333927E+02   -0.47488E-05   -0.33699E-06 52908   0.194E-02    0.893E-03
DAV:   4    -0.533479319543E+02    0.14383E-05   -0.11435E-06 50538   0.784E-03    0.528E-03
DAV:   5    -0.533479304852E+02    0.14692E-05   -0.17181E-06 50010   0.618E-03    0.157E-03
DAV:   6    -0.533479303158E+02    0.16938E-06   -0.22384E-07 49818   0.297E-03
   4 F= -.53347930E+02 E0= -.53347930E+02  d E =-.253553E-02  mag=     0.0000
       N       E                     dE             d eps       ncg     rms          rms(c)
DAV:   1    -0.533479334231E+02   -0.29379E-05   -0.64470E-05 99990   0.810E-02    0.127E-02
DAV:   2    -0.533479287406E+02    0.46824E-05   -0.63095E-06 50574   0.263E-02    0.845E-03
DAV:   3    -0.533479309467E+02   -0.22060E-05   -0.12269E-06 49830   0.923E-03    0.382E-03
DAV:   4    -0.533479305194E+02    0.42724E-06   -0.23728E-07 49674   0.419E-03    0.205E-03
DAV:   5    -0.533479293618E+02    0.11577E-05   -0.26239E-07 49656   0.308E-03    0.750E-04
DAV:   6    -0.533479297032E+02   -0.34144E-06   -0.57937E-08 49644   0.158E-03
   5 F= -.53347930E+02 E0= -.53347930E+02  d E =-.253492E-02  mag=     0.0000
       N       E                     dE             d eps       ncg     rms          rms(c)
DAV:   1    -0.533479301992E+02   -0.83745E-06   -0.10867E-05 49632   0.348E-02    0.557E-03
DAV:   2    -0.533479287881E+02    0.14111E-05   -0.16751E-06 49632   0.152E-02    0.490E-03
DAV:   3    -0.533479297240E+02   -0.93595E-06   -0.18702E-07 49632   0.379E-03    0.173E-03
DAV:   4    -0.533479297394E+02   -0.15385E-07   -0.85107E-08 49632   0.219E-03    0.861E-04
DAV:   5    -0.533479292791E+02    0.46031E-06   -0.38510E-08 49632   0.124E-03    0.409E-04
DAV:   6    -0.533479293436E+02   -0.64520E-07   -0.17967E-08 49632   0.847E-04
   6 F= -.53347929E+02 E0= -.53347929E+02  d E =-.253456E-02  mag=     0.0000
       N       E                     dE             d eps       ncg     rms          rms(c)
DAV:   1    -0.533513535862E+02   -0.34243E-02   -0.13998E-01 99264   0.320E+00    0.479E-01
DAV:   2    -0.533490113865E+02    0.23422E-02   -0.71371E-03 99852   0.887E-01    0.332E-01
DAV:   3    -0.533485719991E+02    0.43939E-03   -0.61563E-04112014   0.228E-01    0.172E-01
DAV:   4    -0.533483606403E+02    0.21136E-03   -0.17218E-04110094   0.107E-01    0.650E-02
DAV:   5    -0.533483459628E+02    0.14677E-04   -0.12715E-04 99276   0.744E-02    0.159E-02
DAV:   6    -0.533483410641E+02    0.48987E-05   -0.11919E-05 60612   0.276E-02
   7 F= -.53348341E+02 E0= -.53348341E+02  d E =-.411721E-03  mag=     0.0000
