       N       E                     dE             d eps       ncg     rms          rms(c)
DAV:   1     0.419990275713E+04    0.41999E+04   -0.19099E+05 97368   0.187E+03
DAV:   2     0.120073607065E+03   -0.40798E+04   -0.37924E+04100200   0.543E+02
DAV:   3    -0.382272577661E+03   -0.50235E+03   -0.47229E+03 93368   0.205E+02
DAV:   4    -0.399782436854E+03   -0.17510E+02   -0.17396E+02 94016   0.395E+01
DAV:   5    -0.400020209052E+03   -0.23777E+00   -0.23746E+00 97896   0.470E+00    0.997E+00
DAV:   6    -0.302300969629E+03    0.97719E+02   -0.39272E+01 93568   0.177E+01    0.125E+01
DAV:   7    -0.302007341633E+03    0.29363E+00   -0.64481E-01 94040   0.337E+00    0.613E+00
DAV:   8    -0.301873809652E+03    0.13353E+00   -0.27868E-01 93888   0.194E+00    0.280E+00
DAV:   9    -0.301850480868E+03    0.23329E-01   -0.18489E-02 95064   0.527E-01    0.288E+00
DAV:  10    -0.301819957870E+03    0.30523E-01   -0.26536E-02 93888   0.489E-01    0.215E+00
DAV:  11    -0.301800408519E+03    0.19549E-01   -0.14134E-02 94016   0.334E-01    0.169E+00
DAV:  12    -0.301783829585E+03    0.16579E-01   -0.19032E-02 93808   0.389E-01    0.111E+00
DAV:  13    -0.301781726563E+03    0.21030E-02   -0.88122E-04 95840   0.880E-02    0.989E-01
DAV:  14    -0.301779163793E+03    0.25628E-02   -0.11195E-03 93824   0.974E-02    0.838E-01
DAV:  15    -0.301773928183E+03    0.52356E-02   -0.11820E-02 93848   0.316E-01    0.334E-01
DAV:  16    -0.301773060793E+03    0.86739E-03   -0.31376E-03 93920   0.161E-01    0.823E-02
DAV:  17    -0.301773036288E+03    0.24505E-04   -0.77319E-05 86784   0.264E-02    0.516E-02
DAV:  18    -0.301773027259E+03    0.90289E-05   -0.55813E-06 50544   0.851E-03
   1 F= -.30177303E+03 E0= -.30177303E+03  d E =-.301773E+03  mag=     0.0000
