       N       E                     dE             d eps       ncg     rms          rms(c)
DAV:   1     0.852611339510E+03    0.85261E+03   -0.37925E+04135592   0.182E+03
DAV:   2    -0.129607003229E+02   -0.86557E+03   -0.82830E+03156786   0.539E+02
DAV:   3    -0.102732362975E+03   -0.89772E+02   -0.88989E+02156165   0.188E+02
DAV:   4    -0.104786433236E+03   -0.20541E+01   -0.20419E+01157223   0.292E+01
DAV:   5    -0.104843017295E+03   -0.56584E-01   -0.56572E-01182427   0.479E+00    0.340E+01
DAV:   6    -0.802714665209E+02    0.24572E+02   -0.52861E+01177555   0.607E+01    0.236E+01
DAV:   7    -0.811704545724E+02   -0.89899E+00   -0.54069E+00157721   0.145E+01    0.155E+01
DAV:   8    -0.816217752501E+02   -0.45132E+00   -0.69112E-01159149   0.741E+00    0.926E+00
DAV:   9    -0.816547398716E+02   -0.32965E-01   -0.11789E-01154908   0.290E+00    0.277E+00
DAV:  10    -0.816473318336E+02    0.74080E-02   -0.22277E-02175541   0.126E+00    0.661E-01
DAV:  11    -0.816562011185E+02   -0.88693E-02   -0.23436E-03177237   0.373E-01    0.378E-01
DAV:  12    -0.816544517985E+02    0.17493E-02   -0.10963E-03183076   0.244E-01    0.165E-01
DAV:  13    -0.816559834982E+02   -0.15317E-02   -0.21135E-04176239   0.102E-01    0.901E-02
DAV:  14    -0.816557194518E+02    0.26405E-03   -0.31305E-05135701   0.347E-02    0.370E-02
DAV:  15    -0.816556847010E+02    0.34751E-04   -0.78926E-06 75187   0.207E-02    0.210E-02
DAV:  16    -0.816556649927E+02    0.19708E-04   -0.45335E-06 71512   0.163E-02    0.121E-02
DAV:  17    -0.816557660959E+02   -0.10110E-03   -0.14335E-06 67704   0.962E-03    0.730E-03
DAV:  18    -0.816556218211E+02    0.14427E-03   -0.12275E-06 67704   0.881E-03    0.516E-03
DAV:  19    -0.816556875122E+02   -0.65691E-04   -0.10288E-06 67704   0.639E-03    0.216E-03
DAV:  20    -0.816556991069E+02   -0.11595E-04   -0.30761E-07 67704   0.317E-03    0.111E-03
DAV:  21    -0.816557077259E+02   -0.86190E-05   -0.10363E-07 67704   0.196E-03
   1 F= -.81655708E+02 E0= -.81655708E+02  d E =-.816557E+02  mag=     0.0000
       N       E                     dE             d eps       ncg     rms          rms(c)
DAV:   1    -0.823289145639E+02   -0.67322E+00   -0.24674E+01135408   0.424E+01    0.764E+00
DAV:   2    -0.817365864690E+02    0.59233E+00   -0.21227E+00135408   0.968E+00    0.381E+00
DAV:   3    -0.816731240468E+02    0.63462E-01   -0.30244E-01155635   0.492E+00    0.167E+00
DAV:   4    -0.816670355710E+02    0.60885E-02   -0.32720E-02156490   0.940E-01    0.126E+00
DAV:   5    -0.816652175624E+02    0.18180E-02   -0.98058E-03196205   0.482E-01    0.633E-01
DAV:   6    -0.816623650010E+02    0.28526E-02   -0.39072E-03180765   0.369E-01    0.296E-01
DAV:   7    -0.816638171899E+02   -0.14522E-02   -0.26960E-04181769   0.117E-01    0.109E-01
DAV:   8    -0.816634677574E+02    0.34943E-03   -0.29239E-05132320   0.420E-02    0.442E-02
DAV:   9    -0.816635321802E+02   -0.64423E-04   -0.15350E-05122870   0.248E-02    0.212E-02
DAV:  10    -0.816634939000E+02    0.38280E-04   -0.33066E-06 72996   0.144E-02    0.941E-03
DAV:  11    -0.816634791237E+02    0.14776E-04   -0.13469E-06 67704   0.849E-03    0.439E-03
DAV:  12    -0.816634921268E+02   -0.13003E-04   -0.73655E-07 67704   0.543E-03    0.262E-03
DAV:  13    -0.816634846799E+02    0.74469E-05   -0.34139E-07 67704   0.354E-03
   2 F= -.81663485E+02 E0= -.81663485E+02  d E =-.777695E-02  mag=    -0.0000
       N       E                     dE             d eps       ncg     rms          rms(c)
DAV:   1    -0.818282108927E+02   -0.16472E+00   -0.48220E+00135408   0.186E+01    0.340E+00
DAV:   2    -0.816974687465E+02    0.13074E+00   -0.41264E-01135408   0.422E+00    0.161E+00
DAV:   3    -0.816815552158E+02    0.15914E-01   -0.64924E-02154811   0.225E+00    0.679E-01
DAV:   4    -0.816784330585E+02    0.31222E-02   -0.43086E-03172091   0.380E-01    0.436E-01
DAV:   5    -0.816785755083E+02   -0.14245E-03   -0.13503E-03198112   0.190E-01    0.278E-01
DAV:   6    -0.816783933766E+02    0.18213E-03   -0.67653E-04187514   0.155E-01    0.939E-02
DAV:   7    -0.816779093813E+02    0.48400E-03   -0.17549E-05111399   0.355E-02    0.457E-02
DAV:   8    -0.816780085475E+02   -0.99166E-04   -0.55551E-06 86434   0.185E-02    0.166E-02
DAV:   9    -0.816779649741E+02    0.43573E-04   -0.53262E-06 86178   0.127E-02    0.758E-03
DAV:  10    -0.816779819852E+02   -0.17011E-04   -0.83674E-07 67704   0.676E-03    0.300E-03
DAV:  11    -0.816779897729E+02   -0.77876E-05   -0.30051E-07 67704   0.331E-03
   3 F= -.81677990E+02 E0= -.81677990E+02  d E =-.222820E-01  mag=    -0.0000
       N       E                     dE             d eps       ncg     rms          rms(c)
DAV:   1    -0.816779992810E+02   -0.17296E-04   -0.55743E-04135408   0.201E-01    0.365E-02
DAV:   2    -0.816780187299E+02   -0.19449E-04   -0.47699E-05135408   0.455E-02    0.176E-02
DAV:   3    -0.816779997254E+02    0.19004E-04   -0.64151E-06 67704   0.239E-02    0.636E-03
DAV:   4    -0.816779818206E+02    0.17905E-04   -0.13042E-06 67704   0.779E-03    0.424E-03
DAV:   5    -0.816779934039E+02   -0.11583E-04   -0.29593E-07 67704   0.427E-03    0.267E-03
DAV:   6    -0.816779886895E+02    0.47145E-05   -0.12883E-07 67704   0.310E-03
   4 F= -.81677989E+02 E0= -.81677989E+02  d E =-.222810E-01  mag=    -0.0000
       N       E                     dE             d eps       ncg     rms          rms(c)
DAV:   1    -0.816789033648E+02   -0.90996E-03   -0.35702E-01135408   0.412E+00    0.424E-01
DAV:   2    -0.816795836735E+02   -0.68031E-03   -0.10943E-02159656   0.724E-01    0.241E-01
DAV:   3    -0.816792291475E+02    0.35453E-03   -0.43696E-04163104   0.171E-01    0.139E-01
DAV:   4    -0.816791523621E+02    0.76785E-04   -0.59238E-05165054   0.470E-02    0.973E-02
DAV:   5    -0.816791375284E+02    0.14834E-04   -0.25293E-05129647   0.347E-02    0.919E-02
DAV:   6    -0.816791248277E+02    0.12701E-04   -0.28887E-05132440   0.351E-02    0.507E-02
DAV:   7    -0.816790692464E+02    0.55581E-04   -0.11730E-05106856   0.262E-02    0.105E-02
DAV:   8    -0.816790982986E+02   -0.29052E-04   -0.28797E-06 67704   0.125E-02    0.683E-03
DAV:   9    -0.816790829959E+02    0.15303E-04   -0.13758E-06 67704   0.835E-03    0.532E-03
DAV:  10    -0.816790809155E+02    0.20804E-05   -0.59450E-07 67704   0.508E-03
   5 F= -.81679081E+02 E0= -.81679081E+02  d E =-.109223E-02  mag=    -0.0000
       N       E                     dE             d eps       ncg     rms          rms(c)
DAV:   1    -0.816814288439E+02   -0.23458E-02   -0.32141E+00135408   0.124E+01    0.126E+00
DAV:   2    -0.816841359398E+02   -0.27071E-02   -0.98209E-02158816   0.216E+00    0.712E-01
DAV:   3    -0.816819742589E+02    0.21617E-02   -0.39390E-03162976   0.523E-01    0.407E-01
DAV:   4    -0.816816876358E+02    0.28662E-03   -0.56457E-04198844   0.145E-01    0.284E-01
DAV:   5    -0.816816517813E+02    0.35854E-04   -0.26224E-04190649   0.102E-01    0.272E-01
DAV:   6    -0.816816084411E+02    0.43340E-04   -0.26322E-04199464   0.901E-02    0.169E-01
DAV:   7    -0.816814209247E+02    0.18752E-03   -0.84418E-05179016   0.683E-02    0.375E-02
DAV:   8    -0.816814729986E+02   -0.52074E-04   -0.11125E-05 97003   0.241E-02    0.233E-02
DAV:   9    -0.816814493154E+02    0.23683E-04   -0.43456E-06 88768   0.137E-02    0.113E-02
DAV:  10    -0.816814493982E+02   -0.82809E-07   -0.26766E-06 72555   0.107E-02
   6 F= -.81681449E+02 E0= -.81681449E+02  d E =-.346071E-02  mag=     0.0000
       N       E                     dE             d eps       ncg     rms          rms(c)
DAV:   1    -0.816898370722E+02   -0.83878E-02   -0.12884E+01135408   0.247E+01    0.248E+00
DAV:   2    -0.816909984451E+02   -0.11614E-02   -0.39582E-01152572   0.434E+00    0.140E+00
DAV:   3    -0.816836567024E+02    0.73417E-02   -0.15565E-02162536   0.107E+00    0.778E-01
DAV:   4    -0.816829402196E+02    0.71648E-03   -0.23318E-03192448   0.301E-01    0.555E-01
DAV:   5    -0.816829506838E+02   -0.10464E-04   -0.92968E-04197793   0.202E-01    0.513E-01
DAV:   6    -0.816828020109E+02    0.14867E-03   -0.12066E-03205568   0.189E-01    0.345E-01
DAV:   7    -0.816823585582E+02    0.44345E-03   -0.38209E-04208808   0.135E-01    0.780E-02
DAV:   8    -0.816824421975E+02   -0.83639E-04   -0.47822E-05151495   0.470E-02    0.439E-02
DAV:   9    -0.816824082129E+02    0.33985E-04   -0.11054E-05104118   0.262E-02    0.214E-02
DAV:  10    -0.816824336124E+02   -0.25399E-04   -0.94178E-06110156   0.234E-02    0.100E-02
DAV:  11    -0.816824227595E+02    0.10853E-04   -0.42678E-06 67820   0.156E-02    0.714E-03
DAV:  12    -0.816824271058E+02   -0.43462E-05   -0.13976E-06 67704   0.942E-03
   7 F= -.81682427E+02 E0= -.81682427E+02  d E =-.443842E-02  mag=     0.0000
       N       E                     dE             d eps       ncg     rms          rms(c)
DAV:   1    -0.816809395902E+02    0.14832E-02   -0.11848E+00135408   0.753E+00    0.803E-01
DAV:   2    -0.816828012899E+02   -0.18617E-02   -0.36760E-02159712   0.134E+00    0.463E-01
DAV:   3    -0.816824091566E+02    0.39213E-03   -0.14053E-03160336   0.291E-01    0.264E-01
DAV:   4    -0.816824725105E+02   -0.63354E-04   -0.21684E-04201360   0.847E-02    0.191E-01
DAV:   5    -0.816825010943E+02   -0.28584E-04   -0.70598E-05171789   0.527E-02    0.167E-01
DAV:   6    -0.816825193355E+02   -0.18241E-04   -0.73075E-05164376   0.525E-02    0.101E-01
DAV:   7    -0.816826246835E+02   -0.10535E-03   -0.45695E-05160384   0.464E-02    0.192E-02
DAV:   8    -0.816825727750E+02    0.51909E-04   -0.62534E-06 74011   0.169E-02    0.101E-02
DAV:   9    -0.816826059392E+02   -0.33164E-04   -0.18379E-06 67704   0.107E-02    0.816E-03
DAV:  10    -0.816826024855E+02    0.34537E-05   -0.98366E-07 67704   0.730E-03
   8 F= -.81682602E+02 E0= -.81682602E+02  d E =-.461380E-02  mag=     0.0000
       N       E                     dE             d eps       ncg     rms          rms(c)
DAV:   1    -0.816848705447E+02   -0.22646E-02   -0.10526E+00135408   0.823E+00    0.751E-01
DAV:   2    -0.816849412322E+02   -0.70688E-04   -0.42422E-02135408   0.155E+00    0.398E-01
DAV:   3    -0.816839786491E+02    0.96258E-03   -0.26914E-03172836   0.470E-01    0.230E-01
DAV:   4    -0.816837457459E+02    0.23290E-03   -0.29770E-04191096   0.134E-01    0.171E-01
DAV:   5    -0.816838834849E+02   -0.13774E-03   -0.11145E-04182503   0.834E-02    0.152E-01
DAV:   6    -0.816838025083E+02    0.80977E-04   -0.97938E-05199224   0.760E-02    0.690E-02
DAV:   7    -0.816836940466E+02    0.10846E-03   -0.30296E-05132536   0.417E-02    0.271E-02
DAV:   8    -0.816837437714E+02   -0.49725E-04   -0.57126E-06 79999   0.176E-02    0.121E-02
DAV:   9    -0.816837420741E+02    0.16973E-05   -0.18212E-06 67704   0.104E-02
   9 F= -.81683742E+02 E0= -.81683742E+02  d E =-.113959E-02  mag=     0.0000
