       N       E                     dE             d eps       ncg     rms          rms(c)
DAV:   1     0.100745327428E+04    0.10075E+04   -0.41821E+04158192   0.223E+03
DAV:   2     0.421919756103E+02   -0.96526E+03   -0.92698E+03171236   0.641E+02
DAV:   3    -0.743088252486E+02   -0.11650E+03   -0.11338E+03164620   0.216E+02
DAV:   4    -0.781169363469E+02   -0.38081E+01   -0.37965E+01166728   0.409E+01
DAV:   5    -0.781809463023E+02   -0.64010E-01   -0.63992E-01178348   0.530E+00    0.390E+00
DAV:   6    -0.594880394033E+02    0.18693E+02   -0.74926E+00163272   0.171E+01    0.496E+00
DAV:   7    -0.594138800904E+02    0.74159E-01   -0.16057E-01164216   0.277E+00    0.198E+00
DAV:   8    -0.593879286266E+02    0.25951E-01   -0.39993E-02165416   0.131E+00    0.126E+00
DAV:   9    -0.593808847790E+02    0.70438E-02   -0.38216E-03163176   0.396E-01    0.108E+00
DAV:  10    -0.593743728871E+02    0.65119E-02   -0.39933E-03164124   0.460E-01    0.813E-01
DAV:  11    -0.593689206053E+02    0.54523E-02   -0.58838E-03163952   0.518E-01    0.538E-01
DAV:  12    -0.593672534787E+02    0.16671E-02   -0.12984E-03164360   0.228E-01    0.427E-01
DAV:  13    -0.593671403981E+02    0.11308E-03   -0.17999E-05100036   0.343E-02    0.411E-01
DAV:  14    -0.593664990494E+02    0.64135E-03   -0.32651E-04164372   0.125E-01    0.334E-01
DAV:  15    -0.593653804608E+02    0.11186E-02   -0.24368E-03163776   0.342E-01    0.124E-01
DAV:  16    -0.593651985270E+02    0.18193E-03   -0.69357E-04164916   0.178E-01    0.333E-02
DAV:  17    -0.593652005322E+02   -0.20052E-05   -0.72314E-05151368   0.628E-02
   1 F= -.59365201E+02 E0= -.59365201E+02  d E =-.593652E+02  mag=    -0.0000
