       N       E                     dE             d eps       ncg     rms          rms(c)
DAV:   1     0.656013225341E+03    0.65601E+03   -0.29538E+04 92982   0.170E+03
DAV:   2    -0.125853418535E+02   -0.66860E+03   -0.63934E+03106518   0.511E+02
DAV:   3    -0.718859582986E+02   -0.59301E+02   -0.58627E+02103431   0.166E+02
DAV:   4    -0.731748919395E+02   -0.12889E+01   -0.12833E+01113229   0.252E+01
DAV:   5    -0.732169053135E+02   -0.42013E-01   -0.41875E-01123984   0.420E+00    0.198E+01
DAV:   6    -0.566858354343E+02    0.16531E+02   -0.28691E+01121467   0.422E+01    0.163E+01
DAV:   7    -0.577672543885E+02   -0.10814E+01   -0.44264E+00116049   0.124E+01    0.108E+01
DAV:   8    -0.578599096489E+02   -0.92655E-01   -0.48289E-01104211   0.672E+00    0.588E+00
DAV:   9    -0.579058881573E+02   -0.45979E-01   -0.15365E-01121281   0.345E+00    0.356E+00
DAV:  10    -0.579419808130E+02   -0.36093E-01   -0.29748E-02111858   0.146E+00    0.259E+00
DAV:  11    -0.579465978722E+02   -0.46171E-02   -0.92509E-03108825   0.780E-01    0.116E+00
DAV:  12    -0.579464263663E+02    0.17151E-03   -0.47256E-03107793   0.646E-01    0.241E-01
DAV:  13    -0.579465041238E+02   -0.77758E-04   -0.34920E-04114696   0.155E-01    0.129E-01
DAV:  14    -0.579465702719E+02   -0.66148E-04   -0.72249E-05109464   0.629E-02    0.352E-02
DAV:  15    -0.579465727997E+02   -0.25278E-05   -0.12064E-05 62694   0.317E-02
   1 F= -.57946573E+02 E0= -.57946573E+02  d E =-.579466E+02  mag=    -0.0000
       N       E                     dE             d eps       ncg     rms          rms(c)
DAV:   1    -0.579755861355E+02   -0.29016E-01   -0.25413E+00 99192   0.126E+01    0.150E+00
DAV:   2    -0.579520022805E+02    0.23584E-01   -0.10624E-01 99477   0.242E+00    0.826E-01
DAV:   3    -0.579503826800E+02    0.16196E-02   -0.13809E-02108552   0.832E-01    0.325E-01
DAV:   4    -0.579501449786E+02    0.23770E-03   -0.56271E-04121587   0.150E-01    0.235E-01
DAV:   5    -0.579499956785E+02    0.14930E-03   -0.18139E-04112944   0.981E-02    0.128E-01
DAV:   6    -0.579500737800E+02   -0.78102E-04   -0.83736E-05105855   0.688E-02    0.669E-02
DAV:   7    -0.579501192512E+02   -0.45471E-04   -0.12755E-05 69411   0.332E-02    0.872E-03
DAV:   8    -0.579501133875E+02    0.58637E-05   -0.19798E-06 47706   0.120E-02
   2 F= -.57950113E+02 E0= -.57950113E+02  d E =-.354059E-02  mag=    -0.0000
       N       E                     dE             d eps       ncg     rms          rms(c)
DAV:   1    -0.579503458069E+02   -0.22656E-03   -0.20690E-02 99462   0.114E+00    0.134E-01
DAV:   2    -0.579501783776E+02    0.16743E-03   -0.87692E-04 99495   0.219E-01    0.728E-02
DAV:   3    -0.579501187988E+02    0.59579E-04   -0.11351E-04108621   0.756E-02    0.291E-02
DAV:   4    -0.579501179651E+02    0.83371E-06   -0.37993E-06 50442   0.135E-02    0.210E-02
DAV:   5    -0.579501079746E+02    0.99905E-05   -0.21097E-06 47814   0.109E-02    0.114E-02
DAV:   6    -0.579501160430E+02   -0.80684E-05   -0.85998E-07 47004   0.801E-03
   3 F= -.57950116E+02 E0= -.57950116E+02  d E =-.354324E-02  mag=    -0.0000
       N       E                     dE             d eps       ncg     rms          rms(c)
DAV:   1    -0.579549743529E+02   -0.48664E-02   -0.51879E-01 95244   0.549E+00    0.681E-01
DAV:   2    -0.579516770556E+02    0.32973E-02   -0.17361E-02 96078   0.102E+00    0.409E-01
DAV:   3    -0.579513235576E+02    0.35350E-03   -0.20114E-03109047   0.351E-01    0.196E-01
DAV:   4    -0.579511852518E+02    0.13831E-03   -0.19590E-04137409   0.862E-02    0.144E-01
DAV:   5    -0.579512245983E+02   -0.39347E-04   -0.34664E-05 89679   0.393E-02    0.126E-01
DAV:   6    -0.579512138691E+02    0.10729E-04   -0.43029E-05 84132   0.533E-02    0.388E-02
DAV:   7    -0.579512315844E+02   -0.17715E-04   -0.69608E-06 48234   0.217E-02    0.102E-02
DAV:   8    -0.579512337942E+02   -0.22098E-05   -0.13225E-06 46746   0.958E-03
   4 F= -.57951234E+02 E0= -.57951234E+02  d E =-.111775E-02  mag=    -0.0000
       N       E                     dE             d eps       ncg     rms          rms(c)
DAV:   1    -0.579522510526E+02   -0.10195E-02   -0.10757E-01 95436   0.250E+00    0.311E-01
DAV:   2    -0.579515850972E+02    0.66596E-03   -0.35807E-03 96378   0.465E-01    0.186E-01
DAV:   3    -0.579515300233E+02    0.55074E-04   -0.41914E-04109212   0.160E-01    0.889E-02
DAV:   4    -0.579514744777E+02    0.55546E-04   -0.38540E-05 79431   0.392E-02    0.666E-02
DAV:   5    -0.579514911335E+02   -0.16656E-04   -0.94486E-06 54339   0.223E-02    0.584E-02
DAV:   6    -0.579514893023E+02    0.18312E-05   -0.10971E-05 64452   0.273E-02
   5 F= -.57951489E+02 E0= -.57951489E+02  d E =-.137326E-02  mag=     0.0000
       N       E                     dE             d eps       ncg     rms          rms(c)
DAV:   1    -0.579546596771E+02   -0.31685E-02   -0.43004E-01 95352   0.500E+00    0.623E-01
DAV:   2    -0.579519193581E+02    0.27403E-02   -0.14385E-02 96168   0.931E-01    0.374E-01
DAV:   3    -0.579516279191E+02    0.29144E-03   -0.16817E-03109140   0.321E-01    0.179E-01
DAV:   4    -0.579515101635E+02    0.11776E-03   -0.16389E-04126393   0.790E-02    0.132E-01
DAV:   5    -0.579515437311E+02   -0.33568E-04   -0.27944E-05 75213   0.362E-02    0.116E-01
DAV:   6    -0.579515343459E+02    0.93852E-05   -0.37457E-05 82617   0.498E-02
   6 F= -.57951534E+02 E0= -.57951534E+02  d E =-.141830E-02  mag=     0.0000
       N       E                     dE             d eps       ncg     rms          rms(c)
DAV:   1    -0.579524255719E+02   -0.88184E-03   -0.11078E-01 95376   0.254E+00    0.315E-01
DAV:   2    -0.579517050146E+02    0.72056E-03   -0.36913E-03 96072   0.474E-01    0.190E-01
DAV:   3    -0.579515860858E+02    0.11893E-03   -0.43122E-04109032   0.162E-01    0.895E-02
DAV:   4    -0.579516326749E+02   -0.46589E-04   -0.38524E-05 80991   0.392E-02    0.652E-02
DAV:   5    -0.579516175552E+02    0.15120E-04   -0.96573E-06 54249   0.224E-02    0.573E-02
DAV:   6    -0.579516172957E+02    0.25955E-06   -0.10870E-05 64686   0.271E-02
   7 F= -.57951617E+02 E0= -.57951617E+02  d E =-.150125E-02  mag=     0.0000
       N       E                     dE             d eps       ncg     rms          rms(c)
DAV:   1    -0.579553414882E+02   -0.37239E-02   -0.32022E-01 92928   0.424E+00    0.762E-01
DAV:   2    -0.579530079552E+02    0.23335E-02   -0.57802E-03110946   0.696E-01    0.489E-01
DAV:   3    -0.579524662280E+02    0.54173E-03   -0.83119E-04118743   0.278E-01    0.241E-01
DAV:   4    -0.579524383918E+02    0.27836E-04   -0.57174E-04138750   0.117E-01    0.178E-01
DAV:   5    -0.579524776186E+02   -0.39227E-04   -0.16206E-04123444   0.861E-02    0.188E-01
DAV:   6    -0.579524993227E+02   -0.21704E-04   -0.19294E-04116832   0.874E-02    0.386E-02
DAV:   7    -0.579524886164E+02    0.10706E-04   -0.11707E-05 78414   0.320E-02    0.141E-02
DAV:   8    -0.579524838385E+02    0.47779E-05   -0.16264E-06 48240   0.101E-02
   8 F= -.57952484E+02 E0= -.57952484E+02  d E =-.866543E-03  mag=     0.0000
       N       E                     dE             d eps       ncg     rms          rms(c)
DAV:   1    -0.579691120426E+02   -0.16623E-01   -0.17571E+00 92928   0.992E+00    0.180E+00
DAV:   2    -0.579564054426E+02    0.12707E-01   -0.31581E-02111072   0.163E+00    0.116E+00
DAV:   3    -0.579530836075E+02    0.33218E-02   -0.44447E-03118926   0.638E-01    0.599E-01
DAV:   4    -0.579530246050E+02    0.59003E-04   -0.27962E-03141342   0.261E-01    0.424E-01
DAV:   5    -0.579531719104E+02   -0.14731E-03   -0.79093E-04123405   0.185E-01    0.459E-01
DAV:   6    -0.579533175114E+02   -0.14560E-03   -0.10391E-03123564   0.196E-01    0.826E-02
DAV:   7    -0.579532902175E+02    0.27294E-04   -0.76470E-05108636   0.674E-02    0.415E-02
DAV:   8    -0.579532749762E+02    0.15241E-04   -0.62588E-06 53256   0.181E-02    0.240E-02
DAV:   9    -0.579532621043E+02    0.12872E-04   -0.40746E-06 51552   0.159E-02    0.103E-02
DAV:  10    -0.579532650426E+02   -0.29383E-05   -0.10365E-06 47796   0.766E-03
   9 F= -.57953265E+02 E0= -.57953265E+02  d E =-.164775E-02  mag=     0.0000
