       N       E                     dE             d eps       ncg     rms          rms(c)
DAV:   1     0.846904379235E+03    0.84690E+03   -0.41732E+04115278   0.201E+03
DAV:   2     0.567493653565E+01   -0.84123E+03   -0.80414E+03127017   0.563E+02
DAV:   3    -0.850983425295E+02   -0.90773E+02   -0.84104E+02123918   0.189E+02
DAV:   4    -0.876001519036E+02   -0.25018E+01   -0.24939E+01123165   0.335E+01
DAV:   5    -0.876438994520E+02   -0.43748E-01   -0.43741E-01134655   0.443E+00    0.588E+00
DAV:   6    -0.684125340887E+02    0.19231E+02   -0.87741E+00115908   0.182E+01    0.810E+00
DAV:   7    -0.683432932253E+02    0.69241E-01   -0.16414E-01120594   0.363E+00    0.342E+00
DAV:   8    -0.683091195250E+02    0.34174E-01   -0.67472E-02124056   0.171E+00    0.179E+00
DAV:   9    -0.683030649081E+02    0.60546E-02   -0.35492E-03124122   0.367E-01    0.159E+00
DAV:  10    -0.682951300896E+02    0.79348E-02   -0.73647E-03124728   0.581E-01    0.110E+00
DAV:  11    -0.682906081539E+02    0.45219E-02   -0.55231E-03125520   0.487E-01    0.713E-01
DAV:  12    -0.682895766086E+02    0.10315E-02   -0.64273E-04125004   0.162E-01    0.589E-01
DAV:  13    -0.682888941333E+02    0.68248E-03   -0.38122E-04125454   0.128E-01    0.476E-01
DAV:  14    -0.682876475827E+02    0.12466E-02   -0.47704E-03124578   0.460E-01    0.729E-02
DAV:  15    -0.682876222052E+02    0.25377E-04   -0.16330E-04121956   0.860E-02    0.254E-02
DAV:  16    -0.682876197234E+02    0.24818E-05   -0.95628E-06 75912   0.248E-02
   1 F= -.68287620E+02 E0= -.68287620E+02  d E =-.682876E+02  mag=     0.0000
