       N       E                     dE             d eps       ncg     rms          ort
DAV:   1     0.239594021868E+04    0.23959E+04   -0.78948E+04 25536   0.207E+03
DAV:   2     0.227422713334E+03   -0.21685E+04   -0.20088E+04 25536   0.597E+02
DAV:   3    -0.181679693092E+03   -0.40910E+03   -0.39764E+03 25536   0.263E+02
DAV:   4    -0.207085608463E+03   -0.25406E+02   -0.25091E+02 25536   0.677E+01
DAV:   5    -0.207882638687E+03   -0.79703E+00   -0.79504E+00 25536   0.127E+01
SDA:   6    -0.136240772160E+03    0.71642E+02   -0.79504E+00 25536   0.222E+03 0.000E+00
CGA:   7    -0.160136672257E+03   -0.23896E+02   -0.27795E+02 25536   0.160E+02 0.740E+01
CGA:   8    -0.163199136814E+03   -0.30625E+01   -0.30634E+01 25536   0.471E+01 0.575E-01
CGA:   9    -0.164329384727E+03   -0.11302E+01   -0.11311E+01 25536   0.223E+01-0.781E-02
CGA:  10    -0.164880682399E+03   -0.55130E+00   -0.55249E+00 25536   0.959E+00-0.217E-01
CGA:  11    -0.165104599128E+03   -0.22392E+00   -0.22488E+00 25536   0.264E+00-0.265E-01
CGA:  12    -0.165166799774E+03   -0.62201E-01   -0.62682E-01 25536   0.785E-01-0.120E-01
CGA:  13    -0.165186284669E+03   -0.19485E-01   -0.19624E-01 25536   0.249E-01-0.260E-02
CGA:  14    -0.165194136199E+03   -0.78515E-02   -0.80454E-02 25536   0.123E-01-0.158E-02
CGA:  15    -0.165198276910E+03   -0.41407E-02   -0.44981E-02 25536   0.699E-02-0.206E-02
CGA:  16    -0.165200266784E+03   -0.19899E-02   -0.20333E-02 25536   0.335E-02-0.373E-03
CGA:  17    -0.165201572046E+03   -0.13053E-02   -0.14863E-02 25536   0.246E-02-0.791E-03
CGA:  18    -0.165193947977E+03    0.76241E-02   -0.33692E-02 25536   0.300E-01-0.899E-02
CGA:  19    -0.165201389248E+03   -0.74413E-02   -0.77354E-02 25536   0.476E-02 0.133E-02
CGA:  20    -0.165203330102E+03   -0.19409E-02   -0.19545E-02 25536   0.119E-02 0.360E-03
CGA:  21    -0.165203741051E+03   -0.41095E-03   -0.43259E-03 25536   0.357E-03 0.261E-03
CGA:  22    -0.165203903741E+03   -0.16269E-03   -0.16765E-03 25536   0.145E-03 0.140E-03
CGA:  23    -0.165203955070E+03   -0.51329E-04   -0.61273E-04 25536   0.561E-04 0.899E-04
CGA:  24    -0.165203957334E+03   -0.22638E-05   -0.10823E-04 25536   0.325E-04 0.392E-04
   1 F= -.16520396E+03 E0= -.16520396E+03  d E =-.165204E+03  mag=     6.0000
       N       E                     dE             d eps       ncg     rms          ort
SDA:   1    -0.165192256734E+03    0.11698E-01    0.00000E+00 25536   0.304E-01 0.000E+00
CGA:   2    -0.165201883191E+03   -0.96265E-02   -0.96987E-02 25536   0.119E-01 0.920E-03
CGA:   3    -0.165203753247E+03   -0.18701E-02   -0.19710E-02 25536   0.224E-02 0.422E-03
CGA:   4    -0.165204189199E+03   -0.43595E-03   -0.45444E-03 25536   0.391E-03 0.967E-04
CGA:   5    -0.165204247984E+03   -0.58784E-04   -0.74931E-04 25536   0.792E-04 0.867E-04
CGA:   6    -0.165204263886E+03   -0.15902E-04   -0.19422E-04 25536   0.268E-04 0.221E-04
CGA:   7    -0.165204272382E+03   -0.84964E-05   -0.89520E-05 25536   0.118E-04 0.502E-05
   2 F= -.16520427E+03 E0= -.16520427E+03  d E =-.315049E-03  mag=     6.0000
       N       E                     dE             d eps       ncg     rms          ort
SDA:   1    -0.165092566098E+03    0.11170E+00    0.00000E+00 25536   0.276E+00 0.000E+00
CGA:   2    -0.165181080962E+03   -0.88515E-01   -0.88565E-01 25536   0.115E+00 0.346E-02
CGA:   3    -0.165199430538E+03   -0.18350E-01   -0.18631E-01 25536   0.211E-01 0.153E-02
CGA:   4    -0.165203638102E+03   -0.42076E-02   -0.42470E-02 25536   0.368E-02 0.267E-03
CGA:   5    -0.165204373954E+03   -0.73585E-03   -0.76795E-03 25536   0.737E-03 0.282E-03
CGA:   6    -0.165204552758E+03   -0.17880E-03   -0.17846E-03 25536   0.245E-03-0.470E-05
CGA:   7    -0.165204616259E+03   -0.63500E-04   -0.61428E-04 25536   0.843E-04-0.377E-04
CGA:   8    -0.165204619685E+03   -0.34262E-05   -0.94648E-05 25536   0.293E-04 0.348E-04
   3 F= -.16520462E+03 E0= -.16520462E+03  d E =-.662351E-03  mag=     6.0000
       N       E                     dE             d eps       ncg     rms          ort
SDA:   1    -0.165203528259E+03    0.10880E-02    0.00000E+00 25536   0.347E-02 0.000E+00
CGA:   2    -0.165204585394E+03   -0.10571E-02   -0.10500E-02 25536   0.103E-02 0.441E-03
CGA:   3    -0.165204757985E+03   -0.17259E-03   -0.19064E-03 25536   0.209E-03 0.144E-03
CGA:   4    -0.165204780085E+03   -0.22099E-04   -0.34138E-04 25536   0.464E-04 0.868E-04
CGA:   5    -0.165204784068E+03   -0.39832E-05   -0.86222E-05 25536   0.190E-04 0.323E-04
CGA:   6    -0.165204785977E+03   -0.19090E-05   -0.29890E-05 25536   0.893E-05 0.979E-05
   4 F= -.16520479E+03 E0= -.16520479E+03  d E =-.166292E-03  mag=     6.0000
       N       E                     dE             d eps       ncg     rms          ort
SDA:   1    -0.165204792088E+03   -0.80199E-05    0.00000E+00 25536   0.339E-04 0.000E+00
CGA:   2    -0.165204793487E+03   -0.13991E-05   -0.43018E-05 25536   0.181E-04 0.232E-04
CGA:   3    -0.165204792891E+03    0.59616E-06   -0.16718E-05 25536   0.124E-04 0.148E-04
CGA:   4    -0.165204792063E+03    0.82755E-06   -0.92109E-06 25536   0.931E-05 0.107E-04
CGA:   5    -0.165204791305E+03    0.75819E-06   -0.59886E-06 25536   0.729E-05 0.819E-05
CGA:   6    -0.165204790634E+03    0.67146E-06   -0.40984E-06 25536   0.591E-05 0.653E-05
   5 F= -.16520479E+03 E0= -.16520479E+03  d E =-.170949E-03  mag=     6.0000
       N       E                     dE             d eps       ncg     rms          ort
SDA:   1    -0.165204641306E+03    0.15000E-03    0.00000E+00 25536   0.144E-02 0.000E+00
CGA:   2    -0.165204883799E+03   -0.24249E-03   -0.24490E-03 25536   0.515E-03 0.667E-04
CGA:   3    -0.165204987518E+03   -0.10372E-03   -0.10434E-03 25536   0.107E-03 0.658E-04
CGA:   4    -0.165204996247E+03   -0.87291E-05   -0.13936E-04 25536   0.335E-04 0.598E-04
CGA:   5    -0.165204998369E+03   -0.21219E-05   -0.38314E-05 25536   0.145E-04 0.203E-04
CGA:   6    -0.165204998806E+03   -0.43687E-06   -0.14800E-05 25536   0.910E-05 0.114E-04
   6 F= -.16520500E+03 E0= -.16520500E+03  d E =-.208173E-03  mag=     6.0000
