       N       E                     dE             d eps       ncg     rms          rms(c)
DAV:   1     0.761648658979E+03    0.76165E+03   -0.32185E+04106712   0.159E+03
DAV:   2     0.305425299079E+01   -0.75859E+03   -0.69793E+03118456   0.476E+02
DAV:   3    -0.931876833661E+02   -0.96242E+02   -0.93119E+02125640   0.172E+02
DAV:   4    -0.957667511795E+02   -0.25791E+01   -0.25729E+01125400   0.313E+01
DAV:   5    -0.958284916040E+02   -0.61740E-01   -0.61732E-01123784   0.505E+00    0.354E+00
DAV:   6    -0.781771718638E+02    0.17651E+02   -0.71221E+00121432   0.152E+01    0.290E+00
DAV:   7    -0.781040458536E+02    0.73126E-01   -0.27212E-01144872   0.388E+00    0.167E+00
DAV:   8    -0.780787259892E+02    0.25320E-01   -0.41818E-02118952   0.115E+00    0.109E+00
DAV:   9    -0.780751304474E+02    0.35955E-02   -0.32874E-03124840   0.342E-01    0.856E-01
DAV:  10    -0.780718680017E+02    0.32624E-02   -0.22835E-03123888   0.255E-01    0.687E-01
DAV:  11    -0.780690134717E+02    0.28545E-02   -0.32382E-03125112   0.309E-01    0.467E-01
DAV:  12    -0.780677550337E+02    0.12584E-02   -0.14543E-03126088   0.205E-01    0.326E-01
DAV:  13    -0.780670475814E+02    0.70745E-03   -0.15557E-03125472   0.212E-01    0.178E-01
DAV:  14    -0.780669129641E+02    0.13462E-03   -0.71123E-04126256   0.145E-01    0.752E-02
DAV:  15    -0.780669242108E+02   -0.11247E-04   -0.14918E-04127136   0.657E-02    0.304E-02
DAV:  16    -0.780669576602E+02   -0.33449E-04   -0.25802E-05 83520   0.287E-02    0.127E-02
DAV:  17    -0.780669628314E+02   -0.51712E-05   -0.11752E-05 66336   0.200E-02
   1 F= -.78066963E+02 E0= -.78066963E+02  d E =-.780670E+02  mag=    -0.0000
