       N       E                     dE             d eps       ncg     rms          rms(c)
DAV:   1     0.613960242470E+03    0.61396E+03   -0.29576E+04 93000   0.170E+03
DAV:   2    -0.131236178676E+02   -0.62708E+03   -0.58843E+03100239   0.499E+02
DAV:   3    -0.715608149184E+02   -0.58437E+02   -0.57608E+02107313   0.162E+02
DAV:   4    -0.728603364947E+02   -0.12995E+01   -0.12908E+01111819   0.245E+01
DAV:   5    -0.728995672129E+02   -0.39231E-01   -0.39010E-01121167   0.398E+00    0.488E+00
DAV:   6    -0.581379433202E+02    0.14762E+02   -0.80485E+00106488   0.203E+01    0.635E+00
DAV:   7    -0.581262200868E+02    0.11723E-01   -0.24116E-01112431   0.344E+00    0.245E+00
DAV:   8    -0.580964616053E+02    0.29758E-01   -0.41248E-02107418   0.142E+00    0.174E+00
DAV:   9    -0.580844109663E+02    0.12051E-01   -0.12428E-02110412   0.828E-01    0.115E+00
DAV:  10    -0.580795148828E+02    0.48961E-02   -0.41639E-03112020   0.469E-01    0.863E-01
DAV:  11    -0.580776483482E+02    0.18665E-02   -0.98278E-04111579   0.227E-01    0.718E-01
DAV:  12    -0.580751042987E+02    0.25440E-02   -0.31947E-03107223   0.414E-01    0.451E-01
DAV:  13    -0.580745362235E+02    0.56808E-03   -0.40840E-04119226   0.146E-01    0.360E-01
DAV:  14    -0.580738110806E+02    0.72514E-03   -0.10975E-03106623   0.243E-01    0.204E-01
DAV:  15    -0.580735028952E+02    0.30819E-03   -0.86871E-04112953   0.216E-01    0.663E-02
DAV:  16    -0.580734717526E+02    0.31143E-04   -0.12346E-04115104   0.807E-02    0.164E-02
DAV:  17    -0.580734672268E+02    0.45258E-05   -0.41022E-06 53592   0.158E-02
   1 F= -.58073467E+02 E0= -.58073467E+02  d E =-.580735E+02  mag=     0.0000
