       N       E                     dE             d eps       ncg     rms          rms(c)
DAV:   1     0.779750408906E+03    0.77975E+03   -0.33779E+04110925   0.226E+03
DAV:   2     0.144875932414E+02   -0.76526E+03   -0.72016E+03113958   0.638E+02
DAV:   3    -0.687739895283E+02   -0.83262E+02   -0.82307E+02129600   0.209E+02
DAV:   4    -0.706696523782E+02   -0.18957E+01   -0.18917E+01114786   0.336E+01
DAV:   5    -0.707032363120E+02   -0.33584E-01   -0.33582E-01139356   0.437E+00    0.215E+01
DAV:   6    -0.560593907323E+02    0.14644E+02   -0.51722E+01121869   0.653E+01    0.234E+01
DAV:   7    -0.594922625208E+02   -0.34329E+01   -0.43932E+00119916   0.307E+01    0.137E+01
DAV:   8    -0.599702212473E+02   -0.47796E+00   -0.13268E+00116064   0.167E+01    0.959E+00
DAV:   9    -0.606445719742E+02   -0.67435E+00   -0.94234E-01116874   0.933E+00    0.300E+00
DAV:  10    -0.607100952395E+02   -0.65523E-01   -0.22020E-01123786   0.487E+00    0.113E+00
DAV:  11    -0.607293090777E+02   -0.19214E-01   -0.84418E-02131058   0.288E+00    0.786E-01
DAV:  12    -0.607453251787E+02   -0.16016E-01   -0.47127E-02140346   0.120E+00    0.528E-01
DAV:  13    -0.607605621582E+02   -0.15237E-01   -0.87067E-02140301   0.161E+00    0.250E-01
DAV:  14    -0.607620070331E+02   -0.14449E-02   -0.76931E-03118638   0.508E-01    0.138E-01
DAV:  15    -0.607623387927E+02   -0.33176E-03   -0.46080E-03132570   0.411E-01    0.645E-02
DAV:  16    -0.607627324922E+02   -0.39370E-03   -0.98801E-04124785   0.178E-01    0.376E-02
DAV:  17    -0.607629061447E+02   -0.17365E-03   -0.20403E-04106443   0.103E-01    0.201E-02
DAV:  18    -0.607629681727E+02   -0.62028E-04   -0.81285E-05 78363   0.502E-02    0.101E-02
DAV:  19    -0.607629484174E+02    0.19755E-04   -0.69468E-06 68355   0.272E-02    0.511E-03
DAV:  20    -0.607629520796E+02   -0.36621E-05   -0.46412E-06 54540   0.205E-02
   1 F= -.60762952E+02 E0= -.60762952E+02  d E =-.607630E+02  mag=     0.0000
       N       E                     dE             d eps       ncg     rms          rms(c)
DAV:   1    -0.608090629510E+02   -0.46115E-01   -0.10888E+00108288   0.108E+01    0.169E+00
DAV:   2    -0.607702513101E+02    0.38812E-01   -0.14223E-01108288   0.386E+00    0.875E-01
DAV:   3    -0.607666365811E+02    0.36147E-02   -0.96726E-03119457   0.115E+00    0.489E-01
DAV:   4    -0.607652987562E+02    0.13378E-02   -0.75619E-04118431   0.248E-01    0.241E-01
DAV:   5    -0.607651130579E+02    0.18570E-03   -0.33397E-04124200   0.186E-01    0.353E-02
DAV:   6    -0.607645666311E+02    0.54643E-03   -0.49385E-05106839   0.641E-02    0.128E-02
DAV:   7    -0.607646173157E+02   -0.50685E-04   -0.52784E-06 57393   0.227E-02    0.672E-03
DAV:   8    -0.607646118899E+02    0.54259E-05   -0.24017E-06 54585   0.131E-02
   2 F= -.60764612E+02 E0= -.60764612E+02  d E =-.165981E-02  mag=    -0.0000
       N       E                     dE             d eps       ncg     rms          rms(c)
DAV:   1    -0.607648178586E+02   -0.20054E-03   -0.52017E-03108288   0.749E-01    0.116E-01
DAV:   2    -0.607647230718E+02    0.94787E-04   -0.66521E-04108288   0.266E-01    0.606E-02
DAV:   3    -0.607646737913E+02    0.49280E-04   -0.46262E-05104229   0.805E-02    0.341E-02
DAV:   4    -0.607646320887E+02    0.41703E-04   -0.40465E-06 54738   0.193E-02    0.169E-02
DAV:   5    -0.607646391611E+02   -0.70724E-05   -0.33759E-06 54216   0.158E-02    0.285E-03
DAV:   6    -0.607646088230E+02    0.30338E-04   -0.69743E-07 54153   0.752E-03    0.129E-03
DAV:   7    -0.607646069210E+02    0.19019E-05   -0.28431E-07 54144   0.383E-03
   3 F= -.60764607E+02 E0= -.60764607E+02  d E =-.165484E-02  mag=    -0.0000
       N       E                     dE             d eps       ncg     rms          rms(c)
DAV:   1    -0.607653792384E+02   -0.77042E-03   -0.25261E-01108288   0.366E+00    0.304E-01
DAV:   2    -0.607655905371E+02   -0.21130E-03   -0.99314E-03120051   0.794E-01    0.185E-01
DAV:   3    -0.607650837893E+02    0.50675E-03   -0.42807E-04123345   0.187E-01    0.110E-01
DAV:   4    -0.607649503991E+02    0.13339E-03   -0.25605E-04125172   0.107E-01    0.217E-02
DAV:   5    -0.607649087389E+02    0.41660E-04   -0.50864E-05100458   0.411E-02    0.152E-02
DAV:   6    -0.607648948557E+02    0.13883E-04   -0.17587E-05 56043   0.225E-02    0.105E-02
DAV:   7    -0.607648758909E+02    0.18965E-04   -0.27938E-05 54666   0.268E-02    0.499E-03
DAV:   8    -0.607648594545E+02    0.16436E-04   -0.86399E-06 65745   0.139E-02    0.370E-03
DAV:   9    -0.607648535207E+02    0.59338E-05   -0.52456E-06 54171   0.109E-02
   4 F= -.60764854E+02 E0= -.60764854E+02  d E =-.246600E-03  mag=    -0.0000
