       N       E                     dE             d eps       ncg     rms          rms(c)
DAV:   1     0.197050748191E+04    0.19705E+04   -0.93115E+04 92240   0.177E+03
DAV:   2    -0.354382068247E+01   -0.19741E+04   -0.18302E+04 96952   0.515E+02
DAV:   3    -0.231817944247E+03   -0.22827E+03   -0.22495E+03 97480   0.189E+02
DAV:   4    -0.237383743839E+03   -0.55658E+01   -0.54881E+01102112   0.305E+01
DAV:   5    -0.237549983940E+03   -0.16624E+00   -0.16535E+00125496   0.489E+00    0.657E+01
DAV:   6    -0.159337122319E+03    0.78213E+02   -0.15495E+02121936   0.831E+01    0.379E+01
DAV:   7    -0.159993065002E+03   -0.65594E+00   -0.28420E+01121192   0.517E+01    0.264E+01
DAV:   8    -0.159359321068E+03    0.63374E+00   -0.54346E+00116328   0.122E+01    0.133E+01
DAV:   9    -0.159735517020E+03   -0.37620E+00   -0.32331E+00120832   0.129E+01    0.819E+00
DAV:  10    -0.159475956964E+03    0.25956E+00   -0.12050E+00105952   0.844E+00    0.317E+00
DAV:  11    -0.159477796313E+03   -0.18393E-02   -0.16462E-01104712   0.215E+00    0.148E+00
DAV:  12    -0.159477753354E+03    0.42959E-04   -0.43207E-02100792   0.108E+00    0.780E-01
DAV:  13    -0.159477908869E+03   -0.15551E-03   -0.64704E-03113416   0.554E-01    0.394E-01
DAV:  14    -0.159477712280E+03    0.19659E-03   -0.36433E-03106744   0.336E-01    0.184E-01
DAV:  15    -0.159477640745E+03    0.71535E-04   -0.96473E-04110456   0.181E-01    0.660E-02
DAV:  16    -0.159477637060E+03    0.36858E-05   -0.13701E-04100800   0.670E-02    0.368E-02
DAV:  17    -0.159477642874E+03   -0.58142E-05   -0.16372E-05 56448   0.208E-02
   1 F= -.15947764E+03 E0= -.15947764E+03  d E =-.159478E+03  mag=     0.0001
