       N       E                     dE             d eps       ncg     rms          rms(c)
DAV:   1     0.740589518856E+03    0.74059E+03   -0.40954E+04148755   0.198E+03
DAV:   2    -0.170776058605E+02   -0.75767E+03   -0.73669E+03133629   0.583E+02
DAV:   3    -0.741762783425E+02   -0.57099E+02   -0.56388E+02152454   0.180E+02
DAV:   4    -0.751043208413E+02   -0.92804E+00   -0.92606E+00142452   0.244E+01
DAV:   5    -0.751200822552E+02   -0.15761E-01   -0.15759E-01146013   0.338E+00    0.210E+01
DAV:   6    -0.559795171883E+02    0.19141E+02   -0.55643E+01148110   0.817E+01    0.304E+01
DAV:   7    -0.555370012771E+02    0.44252E+00   -0.43109E+00134550   0.340E+01    0.160E+01
DAV:   8    -0.555199951723E+02    0.17006E-01   -0.11515E+00138069   0.195E+01    0.850E+00
DAV:   9    -0.555247171966E+02   -0.47220E-02   -0.19316E-01135684   0.440E+00    0.202E+00
DAV:  10    -0.555117198207E+02    0.12997E-01   -0.73297E-02179835   0.416E+00    0.888E-01
DAV:  11    -0.555155741445E+02   -0.38543E-02   -0.19740E-02137205   0.117E+00    0.462E-01
DAV:  12    -0.555167386700E+02   -0.11645E-02   -0.57789E-03175605   0.792E-01    0.196E-01
DAV:  13    -0.555162427742E+02    0.49590E-03   -0.10746E-03146136   0.347E-01    0.955E-02
DAV:  14    -0.555161599856E+02    0.82789E-04   -0.86389E-05166107   0.144E-01    0.412E-02
DAV:  15    -0.555160753503E+02    0.84635E-04   -0.41317E-05113901   0.693E-02    0.169E-02
DAV:  16    -0.555161164441E+02   -0.41094E-04   -0.16338E-05 69708   0.393E-02    0.109E-02
DAV:  17    -0.555161119173E+02    0.45267E-05   -0.26134E-06 68601   0.168E-02
   1 F= -.55516112E+02 E0= -.55516112E+02  d E =-.555161E+02  mag=     0.0000
       N       E                     dE             d eps       ncg     rms          rms(c)
DAV:   1    -0.560164434356E+02   -0.50033E+00   -0.88283E+00136866   0.369E+01    0.680E+00
DAV:   2    -0.555653629344E+02    0.45108E+00   -0.24109E+00135096   0.221E+01    0.393E+00
DAV:   3    -0.555373346506E+02    0.28028E-01   -0.76858E-02164211   0.408E+00    0.186E+00
DAV:   4    -0.555323482735E+02    0.49864E-02   -0.91726E-03136650   0.888E-01    0.923E-01
DAV:   5    -0.555274600695E+02    0.48882E-02   -0.21679E-03178518   0.768E-01    0.320E-01
DAV:   6    -0.555249147800E+02    0.25453E-02   -0.98305E-04148800   0.339E-01    0.810E-02
DAV:   7    -0.555254728051E+02   -0.55803E-03   -0.13520E-04156837   0.200E-01    0.531E-02
DAV:   8    -0.555252093517E+02    0.26345E-03   -0.43644E-05127161   0.103E-01    0.193E-02
DAV:   9    -0.555252501820E+02   -0.40830E-04   -0.66912E-06 68037   0.331E-02    0.938E-03
DAV:  10    -0.555252247212E+02    0.25461E-04   -0.56224E-06 66609   0.211E-02    0.584E-03
DAV:  11    -0.555252185385E+02    0.61827E-05   -0.65391E-07 65976   0.795E-03
   2 F= -.55525219E+02 E0= -.55525219E+02  d E =-.910662E-02  mag=     0.0000
       N       E                     dE             d eps       ncg     rms          rms(c)
DAV:   1    -0.555313169660E+02   -0.60922E-02   -0.10789E-01136479   0.408E+00    0.764E-01
DAV:   2    -0.555243898796E+02    0.69271E-02   -0.27281E-02134073   0.265E+00    0.449E-01
DAV:   3    -0.555254389817E+02   -0.10491E-02   -0.98353E-04159126   0.413E-01    0.215E-01
DAV:   4    -0.555251189506E+02    0.32003E-03   -0.11138E-04137331   0.111E-01    0.110E-01
DAV:   5    -0.555251053941E+02    0.13557E-04   -0.18971E-05 98832   0.792E-02    0.366E-02
DAV:   6    -0.555253534822E+02   -0.24809E-03   -0.16666E-05 78426   0.420E-02    0.943E-03
DAV:   7    -0.555253017839E+02    0.51698E-04   -0.24744E-06 65145   0.218E-02    0.574E-03
DAV:   8    -0.555253093056E+02   -0.75217E-05   -0.11473E-06 64992   0.111E-02
   3 F= -.55525309E+02 E0= -.55525309E+02  d E =-.919739E-02  mag=     0.0000
       N       E                     dE             d eps       ncg     rms          rms(c)
DAV:   1    -0.555280117329E+02   -0.27099E-02   -0.46719E-01128856   0.487E+00    0.498E-01
DAV:   2    -0.555277485654E+02    0.26317E-03   -0.15442E-02134094   0.135E+00    0.313E-01
DAV:   3    -0.555264906572E+02    0.12579E-02   -0.14259E-03180198   0.456E-01    0.149E-01
DAV:   4    -0.555266872421E+02   -0.19658E-03   -0.58005E-04171471   0.183E-01    0.743E-02
DAV:   5    -0.555266986464E+02   -0.11404E-04   -0.90159E-05124821   0.933E-02    0.495E-02
DAV:   6    -0.555266637702E+02    0.34876E-04   -0.51643E-05 88725   0.101E-01    0.188E-02
DAV:   7    -0.555267031845E+02   -0.39414E-04   -0.16591E-05 89121   0.375E-02    0.108E-02
DAV:   8    -0.555266929946E+02    0.10190E-04   -0.37563E-06 65460   0.205E-02    0.630E-03
DAV:   9    -0.555266840539E+02    0.89407E-05   -0.61727E-07 65241   0.868E-03
   4 F= -.55526684E+02 E0= -.55526684E+02  d E =-.137475E-02  mag=     0.0000
       N       E                     dE             d eps       ncg     rms          rms(c)
DAV:   1    -0.555421169095E+02   -0.15424E-01   -0.42019E+00128856   0.146E+01    0.150E+00
DAV:   2    -0.555381833375E+02    0.39336E-02   -0.13969E-01134466   0.404E+00    0.938E-01
DAV:   3    -0.555284163669E+02    0.97670E-02   -0.13375E-02180078   0.135E+00    0.443E-01
DAV:   4    -0.555292586291E+02   -0.84226E-03   -0.55617E-03172410   0.567E-01    0.224E-01
DAV:   5    -0.555293713754E+02   -0.11275E-03   -0.82285E-04180900   0.276E-01    0.151E-01
DAV:   6    -0.555293189614E+02    0.52414E-04   -0.41267E-04180987   0.316E-01    0.548E-02
DAV:   7    -0.555293621834E+02   -0.43222E-04   -0.13038E-04144360   0.104E-01    0.293E-02
DAV:   8    -0.555293589691E+02    0.32143E-05   -0.14303E-05 68079   0.432E-02
   5 F= -.55529359E+02 E0= -.55529359E+02  d E =-.404966E-02  mag=     0.0000
       N       E                     dE             d eps       ncg     rms          rms(c)
DAV:   1    -0.555773489967E+02   -0.47987E-01   -0.16804E+01128856   0.292E+01    0.300E+00
DAV:   2    -0.555608721930E+02    0.16477E-01   -0.56765E-01135252   0.800E+00    0.187E+00
DAV:   3    -0.555233720950E+02    0.37500E-01   -0.51995E-02179976   0.264E+00    0.870E-01
DAV:   4    -0.555247643155E+02   -0.13922E-02   -0.21712E-02171573   0.116E+00    0.442E-01
DAV:   5    -0.555254625499E+02   -0.69823E-03   -0.33259E-03180966   0.552E-01    0.303E-01
DAV:   6    -0.555254080060E+02    0.54544E-04   -0.17953E-03181815   0.644E-01    0.118E-01
DAV:   7    -0.555254023917E+02    0.56143E-05   -0.40389E-04178581   0.229E-01    0.576E-02
DAV:   8    -0.555254446512E+02   -0.42260E-04   -0.11910E-04134277   0.893E-02    0.367E-02
DAV:   9    -0.555254020762E+02    0.42575E-04   -0.84194E-06 69516   0.520E-02    0.241E-02
DAV:  10    -0.555253753126E+02    0.26764E-04   -0.78876E-06 68016   0.501E-02    0.821E-03
DAV:  11    -0.555253978171E+02   -0.22504E-04   -0.64172E-06 67056   0.234E-02    0.520E-03
DAV:  12    -0.555253994632E+02   -0.16461E-05   -0.12251E-06 66354   0.120E-02
   6 F= -.55525399E+02 E0= -.55525399E+02  d E =-.901577E-04  mag=     0.0000
       N       E                     dE             d eps       ncg     rms          rms(c)
DAV:   1    -0.555504055169E+02   -0.25008E-01   -0.10782E+01128886   0.235E+01    0.241E+00
DAV:   2    -0.555505620578E+02   -0.15654E-03   -0.36096E-01134550   0.679E+00    0.151E+00
DAV:   3    -0.555298704199E+02    0.20692E-01   -0.31434E-02183486   0.214E+00    0.765E-01
DAV:   4    -0.555288994429E+02    0.97098E-03   -0.13961E-02174723   0.890E-01    0.379E-01
DAV:   5    -0.555295281409E+02   -0.62870E-03   -0.24019E-03180747   0.481E-01    0.244E-01
DAV:   6    -0.555298385169E+02   -0.31038E-03   -0.10500E-03186096   0.476E-01    0.993E-02
DAV:   7    -0.555295989602E+02    0.23956E-03   -0.27893E-04187842   0.174E-01    0.462E-02
DAV:   8    -0.555296845869E+02   -0.85627E-04   -0.43403E-05101130   0.759E-02    0.283E-02
DAV:   9    -0.555297381035E+02   -0.53517E-04   -0.82750E-06 67821   0.385E-02    0.168E-02
DAV:  10    -0.555296940551E+02    0.44048E-04   -0.49374E-06 66687   0.297E-02    0.773E-03
DAV:  11    -0.555297272399E+02   -0.33185E-04   -0.30763E-06 66063   0.183E-02    0.402E-03
DAV:  12    -0.555297250889E+02    0.21509E-05   -0.62239E-07 65691   0.747E-03
   7 F= -.55529725E+02 E0= -.55529725E+02  d E =-.441578E-02  mag=     0.0000
       N       E                     dE             d eps       ncg     rms          rms(c)
DAV:   1    -0.555414507673E+02   -0.11724E-01   -0.50669E-01131004   0.613E+00    0.999E-01
DAV:   2    -0.555323043123E+02    0.91465E-02   -0.33148E-02136038   0.288E+00    0.643E-01
DAV:   3    -0.555312764308E+02    0.10279E-02   -0.34791E-03171825   0.708E-01    0.353E-01
DAV:   4    -0.555305230265E+02    0.75340E-03   -0.26970E-03186900   0.401E-01    0.141E-01
DAV:   5    -0.555306511279E+02   -0.12810E-03   -0.80043E-04177078   0.247E-01    0.982E-02
DAV:   6    -0.555309035472E+02   -0.25242E-03   -0.16782E-04178962   0.181E-01    0.533E-02
DAV:   7    -0.555307393577E+02    0.16419E-03   -0.49071E-05134310   0.105E-01    0.261E-02
DAV:   8    -0.555308203611E+02   -0.81003E-04   -0.12781E-05 66249   0.471E-02    0.138E-02
DAV:   9    -0.555308473342E+02   -0.26973E-04   -0.39623E-06 65523   0.236E-02    0.824E-03
DAV:  10    -0.555308355364E+02    0.11798E-04   -0.10104E-06 65358   0.141E-02    0.438E-03
DAV:  11    -0.555308439243E+02   -0.83880E-05   -0.97506E-07 65181   0.103E-02
   8 F= -.55530844E+02 E0= -.55530844E+02  d E =-.111884E-02  mag=     0.0000
       N       E                     dE             d eps       ncg     rms          rms(c)
DAV:   1    -0.555430135880E+02   -0.12178E-01   -0.56722E-01131073   0.649E+00    0.106E+00
DAV:   2    -0.555328956304E+02    0.10118E-01   -0.36932E-02136101   0.304E+00    0.678E-01
DAV:   3    -0.555316203583E+02    0.12753E-02   -0.38962E-03172026   0.753E-01    0.372E-01
DAV:   4    -0.555307770133E+02    0.84334E-03   -0.30390E-03182721   0.420E-01    0.149E-01
DAV:   5    -0.555309184992E+02   -0.14149E-03   -0.89186E-04176574   0.263E-01    0.104E-01
DAV:   6    -0.555311871693E+02   -0.26867E-03   -0.19454E-04179541   0.192E-01    0.570E-02
DAV:   7    -0.555310137110E+02    0.17346E-03   -0.57120E-05142359   0.114E-01    0.282E-02
DAV:   8    -0.555311016459E+02   -0.87935E-04   -0.13977E-05 66561   0.517E-02    0.146E-02
DAV:   9    -0.555311288635E+02   -0.27218E-04   -0.48581E-06 65757   0.248E-02    0.871E-03
DAV:  10    -0.555311180924E+02    0.10771E-04   -0.10846E-06 65592   0.149E-02    0.457E-03
DAV:  11    -0.555311259007E+02   -0.78083E-05   -0.10249E-06 65361   0.104E-02
   9 F= -.55531126E+02 E0= -.55531126E+02  d E =-.140081E-02  mag=    -0.0000
       N       E                     dE             d eps       ncg     rms          rms(c)
DAV:   1    -0.555316038106E+02   -0.48572E-03   -0.22207E-02131013   0.128E+00    0.209E-01
DAV:   2    -0.555315159859E+02    0.87825E-04   -0.14363E-03136320   0.591E-01    0.134E-01
DAV:   3    -0.555311176514E+02    0.39833E-03   -0.15070E-04171126   0.149E-01    0.734E-02
DAV:   4    -0.555311877668E+02   -0.70115E-04   -0.11578E-04147687   0.831E-02    0.294E-02
DAV:   5    -0.555311840478E+02    0.37190E-05   -0.35724E-05 65880   0.555E-02    0.199E-02
DAV:   6    -0.555311293356E+02    0.54712E-04   -0.91713E-06 65079   0.408E-02    0.119E-02
DAV:   7    -0.555311585451E+02   -0.29209E-04   -0.40197E-06 64869   0.252E-02    0.698E-03
DAV:   8    -0.555311514779E+02    0.70671E-05   -0.19105E-06 64812   0.114E-02
  10 F= -.55531151E+02 E0= -.55531151E+02  d E =-.142639E-02  mag=    -0.0000
       N       E                     dE             d eps       ncg     rms          rms(c)
DAV:   1    -0.555389514560E+02   -0.77929E-02   -0.30837E-01132132   0.738E+00    0.937E-01
DAV:   2    -0.555345476219E+02    0.44038E-02   -0.52524E-02135006   0.333E+00    0.549E-01
DAV:   3    -0.555318549544E+02    0.26927E-02   -0.29291E-03162672   0.575E-01    0.302E-01
DAV:   4    -0.555320054211E+02   -0.15047E-03   -0.14632E-03191454   0.277E-01    0.141E-01
DAV:   5    -0.555320014496E+02    0.39716E-05   -0.81196E-04195747   0.205E-01    0.812E-02
DAV:   6    -0.555318027732E+02    0.19868E-03   -0.11237E-04154044   0.132E-01    0.504E-02
DAV:   7    -0.555319397697E+02   -0.13700E-03   -0.51395E-05146703   0.119E-01    0.243E-02
DAV:   8    -0.555318588584E+02    0.80911E-04   -0.12381E-05 73266   0.435E-02    0.124E-02
DAV:   9    -0.555318363129E+02    0.22545E-04   -0.37249E-06 65739   0.217E-02    0.721E-03
DAV:  10    -0.555318485978E+02   -0.12285E-04   -0.70123E-07 65493   0.105E-02    0.412E-03
DAV:  11    -0.555318403696E+02    0.82281E-05   -0.69972E-07 65283   0.880E-03
  11 F= -.55531840E+02 E0= -.55531840E+02  d E =-.688892E-03  mag=     0.0000
