       N       E                     dE             d eps       ncg     rms          rms(c)
DAV:   1     0.418781188587E+04    0.41878E+04   -0.19107E+05 97112   0.187E+03
DAV:   2     0.917241208460E+02   -0.40961E+04   -0.38070E+04 99496   0.546E+02
DAV:   3    -0.417523004811E+03   -0.50925E+03   -0.47802E+03 93232   0.207E+02
DAV:   4    -0.435168860094E+03   -0.17646E+02   -0.17531E+02 94024   0.396E+01
DAV:   5    -0.435404385324E+03   -0.23553E+00   -0.23520E+00 98520   0.463E+00    0.950E+00
DAV:   6    -0.342002468001E+03    0.93402E+02   -0.34739E+01 93728   0.164E+01    0.120E+01
DAV:   7    -0.341760218130E+03    0.24225E+00   -0.57681E-01 94064   0.305E+00    0.577E+00
DAV:   8    -0.341626311155E+03    0.13391E+00   -0.23770E-01 93928   0.172E+00    0.264E+00
DAV:   9    -0.341608504764E+03    0.17806E-01   -0.14024E-02 94632   0.437E-01    0.272E+00
DAV:  10    -0.341583232340E+03    0.25272E-01   -0.18518E-02 93920   0.415E-01    0.209E+00
DAV:  11    -0.341562877035E+03    0.20355E-01   -0.15851E-02 94016   0.353E-01    0.162E+00
DAV:  12    -0.341547669563E+03    0.15207E-01   -0.19174E-02 93880   0.392E-01    0.103E+00
DAV:  13    -0.341545728244E+03    0.19413E-02   -0.80259E-04 97632   0.843E-02    0.921E-01
DAV:  14    -0.341544373156E+03    0.13551E-02   -0.31106E-04 93896   0.523E-02    0.837E-01
DAV:  15    -0.341541096908E+03    0.32762E-02   -0.35366E-03 93960   0.175E-01    0.553E-01
DAV:  16    -0.341538830805E+03    0.22661E-02   -0.65467E-03 93776   0.234E-01    0.167E-01
DAV:  17    -0.341538590914E+03    0.23989E-03   -0.77625E-04 94016   0.800E-02    0.498E-02
DAV:  18    -0.341538583955E+03    0.69587E-05   -0.10655E-05 50584   0.105E-02
   1 F= -.34153858E+03 E0= -.34153858E+03  d E =-.341539E+03  mag=     0.0000
