       N       E                     dE             d eps       ncg     rms          ort
DAV:   1     0.101496472867E+05    0.10150E+05   -0.35869E+05 25984   0.202E+03
DAV:   2     0.918434350390E+03   -0.92312E+04   -0.86267E+04 25984   0.560E+02
DAV:   3    -0.782038658303E+03   -0.17005E+04   -0.15419E+04 25984   0.238E+02
DAV:   4    -0.907487104013E+03   -0.12545E+03   -0.12318E+03 25984   0.679E+01
DAV:   5    -0.911181735488E+03   -0.36946E+01   -0.36762E+01 25984   0.131E+01
SDA:   6    -0.735041692368E+03    0.17614E+03   -0.36762E+01 25984   0.422E+02 0.000E+00
CGA:   7    -0.741849697744E+03   -0.68080E+01   -0.68190E+01 25984   0.478E+01 0.936E-01
CGA:   8    -0.742815248457E+03   -0.96555E+00   -0.96530E+00 25984   0.173E+01 0.678E-01
CGA:   9    -0.743182949719E+03   -0.36770E+00   -0.36740E+00 25984   0.559E+00 0.277E-01
CGA:  10    -0.743315954923E+03   -0.13301E+00   -0.13234E+00 25984   0.257E+00 0.189E-01
CGA:  11    -0.743377335934E+03   -0.61381E-01   -0.61009E-01 25984   0.102E+00 0.122E-01
CGA:  12    -0.743409167714E+03   -0.31832E-01   -0.31793E-01 25984   0.409E-01 0.273E-03
CGA:  13    -0.743419560449E+03   -0.10393E-01   -0.10415E-01 25984   0.121E-01-0.516E-03
CGA:  14    -0.743421935988E+03   -0.23755E-02   -0.23903E-02 25984   0.238E-02 0.175E-02
CGA:  15    -0.743422356648E+03   -0.42066E-03   -0.46524E-03 25984   0.882E-03 0.117E-02
CGA:  16    -0.743422470466E+03   -0.11382E-03   -0.16930E-03 25984   0.409E-03 0.713E-03
CGA:  17    -0.743422508486E+03   -0.38020E-04   -0.57421E-04 25984   0.267E-03 0.310E-03
CGA:  18    -0.743422517770E+03   -0.92845E-05   -0.29839E-04 25984   0.217E-03 0.234E-03
CGA:  19    -0.743422519410E+03   -0.16395E-05   -0.20903E-04 25984   0.185E-03 0.195E-03
CGA:  20    -0.743422516982E+03    0.24275E-05   -0.15538E-04 25984   0.162E-03 0.169E-03
CGA:  21    -0.743422512380E+03    0.46017E-05   -0.12021E-04 25984   0.145E-03 0.150E-03
   1 F= -.74342251E+03 E0= -.74342251E+03  d E =-.743423E+03  mag=    48.0000
