       N       E                     dE             d eps       ncg     rms          rms(c)
DAV:   1     0.420522836711E+04    0.42052E+04   -0.19099E+05 97296   0.187E+03
DAV:   2     0.120139826100E+03   -0.40851E+04   -0.37974E+04 99944   0.544E+02
DAV:   3    -0.382740054002E+03   -0.50288E+03   -0.47299E+03 93272   0.205E+02
DAV:   4    -0.400295472349E+03   -0.17555E+02   -0.17439E+02 94024   0.396E+01
DAV:   5    -0.400533735910E+03   -0.23826E+00   -0.23795E+00 97808   0.471E+00    0.998E+00
DAV:   6    -0.302805827801E+03    0.97728E+02   -0.39287E+01 93632   0.177E+01    0.125E+01
DAV:   7    -0.302511706685E+03    0.29412E+00   -0.64377E-01 94032   0.338E+00    0.613E+00
DAV:   8    -0.302378374938E+03    0.13333E+00   -0.27918E-01 93920   0.195E+00    0.280E+00
DAV:   9    -0.302354944450E+03    0.23430E-01   -0.18664E-02 95168   0.531E-01    0.288E+00
DAV:  10    -0.302324169445E+03    0.30775E-01   -0.27044E-02 93912   0.492E-01    0.214E+00
DAV:  11    -0.302304793778E+03    0.19376E-01   -0.13969E-02 94016   0.332E-01    0.169E+00
DAV:  12    -0.302288337192E+03    0.16457E-01   -0.18810E-02 93896   0.387E-01    0.111E+00
DAV:  13    -0.302286218500E+03    0.21187E-02   -0.88770E-04 95840   0.882E-02    0.988E-01
DAV:  14    -0.302283591852E+03    0.26266E-02   -0.11847E-03 93920   0.100E-01    0.832E-01
DAV:  15    -0.302278380997E+03    0.52109E-02   -0.12047E-02 93928   0.318E-01    0.324E-01
DAV:  16    -0.302277570069E+03    0.81093E-03   -0.29534E-03 93936   0.156E-01    0.803E-02
DAV:  17    -0.302277546782E+03    0.23287E-04   -0.72685E-05 86784   0.255E-02    0.500E-02
DAV:  18    -0.302277539219E+03    0.75632E-05   -0.42824E-06 50568   0.756E-03
   1 F= -.30227754E+03 E0= -.30227754E+03  d E =-.302278E+03  mag=     0.0000
