       N       E                     dE             d eps       ncg     rms          rms(c)
DAV:   1     0.929639168886E+03    0.92964E+03   -0.40703E+04114027   0.197E+03
DAV:   2     0.109670241319E+02   -0.91867E+03   -0.85478E+03118632   0.568E+02
DAV:   3    -0.104863493672E+03   -0.11583E+03   -0.11322E+03127179   0.212E+02
DAV:   4    -0.108145117141E+03   -0.32816E+01   -0.32739E+01123261   0.367E+01
DAV:   5    -0.108193693903E+03   -0.48577E-01   -0.48570E-01129969   0.496E+00    0.362E+01
DAV:   6    -0.771970553981E+02    0.30997E+02   -0.46344E+01136992   0.710E+01    0.360E+01
DAV:   7    -0.780025917522E+02   -0.80554E+00   -0.60206E+00112686   0.154E+01    0.243E+01
DAV:   8    -0.780998447080E+02   -0.97253E-01   -0.60317E-01123375   0.108E+01    0.128E+01
DAV:   9    -0.780834150033E+02    0.16430E-01   -0.17450E-01125658   0.605E+00    0.223E+00
DAV:  10    -0.781100751706E+02   -0.26660E-01   -0.46828E-02118962   0.231E+00    0.782E-01
DAV:  11    -0.781096422066E+02    0.43296E-03   -0.27484E-03123246   0.462E-01    0.194E-01
DAV:  12    -0.781094890653E+02    0.15314E-03   -0.50671E-04122634   0.303E-01    0.115E-01
DAV:  13    -0.781097460202E+02   -0.25695E-03   -0.38029E-04125772   0.144E-01    0.751E-02
DAV:  14    -0.781097234704E+02    0.22550E-04   -0.48150E-05109068   0.842E-02    0.358E-02
DAV:  15    -0.781096644109E+02    0.59060E-04   -0.43433E-05111858   0.621E-02    0.940E-03
DAV:  16    -0.781097052908E+02   -0.40880E-04   -0.19678E-06 59538   0.139E-02    0.556E-03
DAV:  17    -0.781097092896E+02   -0.39988E-05   -0.88043E-07 59250   0.674E-03
   1 F= -.78109709E+02 E0= -.78109709E+02  d E =-.781097E+02  mag=    -0.0000
       N       E                     dE             d eps       ncg     rms          rms(c)
DAV:   1    -0.781401820474E+02   -0.30477E-01   -0.66506E-01123018   0.807E+00    0.158E+00
DAV:   2    -0.781167437724E+02    0.23438E-01   -0.76830E-02112572   0.279E+00    0.138E+00
DAV:   3    -0.781115385159E+02    0.52053E-02   -0.56555E-03120540   0.537E-01    0.436E-01
DAV:   4    -0.781098639276E+02    0.16746E-02   -0.13271E-03118020   0.332E-01    0.238E-01
DAV:   5    -0.781107230761E+02   -0.85915E-03   -0.25702E-04123570   0.144E-01    0.571E-02
DAV:   6    -0.781100958493E+02    0.62723E-03   -0.18550E-05 85290   0.497E-02    0.102E-02
DAV:   7    -0.781101242845E+02   -0.28435E-04   -0.29406E-06 69492   0.159E-02    0.800E-03
DAV:   8    -0.781101027041E+02    0.21580E-04   -0.78144E-07 60720   0.875E-03    0.150E-03
DAV:   9    -0.781100818083E+02    0.20896E-04   -0.21081E-07 58566   0.468E-03    0.517E-04
DAV:  10    -0.781100892186E+02   -0.74103E-05   -0.68552E-08 57126   0.245E-03
   2 F= -.78110089E+02 E0= -.78110089E+02  d E =-.379929E-03  mag=     0.0000
       N       E                     dE             d eps       ncg     rms          rms(c)
DAV:   1    -0.781154444351E+02   -0.53626E-02   -0.11599E-01121590   0.338E+00    0.662E-01
DAV:   2    -0.781091262229E+02    0.63182E-02   -0.13360E-02112536   0.118E+00    0.588E-01
DAV:   3    -0.781103033262E+02   -0.11771E-02   -0.99108E-04120618   0.215E-01    0.182E-01
DAV:   4    -0.781105309241E+02   -0.22760E-03   -0.23937E-04118038   0.140E-01    0.999E-02
DAV:   5    -0.781100511485E+02    0.47978E-03   -0.42441E-05111738   0.581E-02    0.231E-02
DAV:   6    -0.781103354711E+02   -0.28432E-03   -0.39123E-06 62724   0.221E-02    0.403E-03
DAV:   7    -0.781103265035E+02    0.89676E-05   -0.76931E-07 58950   0.876E-03
   3 F= -.78110327E+02 E0= -.78110327E+02  d E =-.617214E-03  mag=     0.0000
