       N       E                     dE             d eps       ncg     rms          rms(c)
DAV:   1     0.751756830592E+03    0.75176E+03   -0.40863E+04163464   0.199E+03
DAV:   2    -0.752999552841E+01   -0.75929E+03   -0.73819E+03147003   0.585E+02
DAV:   3    -0.646785364088E+02   -0.57149E+02   -0.56444E+02167460   0.180E+02
DAV:   4    -0.656364795985E+02   -0.95794E+00   -0.95591E+00156573   0.247E+01
DAV:   5    -0.656549850406E+02   -0.18505E-01   -0.18503E-01166389   0.361E+00    0.212E+01
DAV:   6    -0.455646538830E+02    0.20090E+02   -0.57118E+01162669   0.839E+01    0.310E+01
DAV:   7    -0.451835630979E+02    0.38109E+00   -0.43911E+00148620   0.349E+01    0.163E+01
DAV:   8    -0.450839787377E+02    0.99584E-01   -0.12539E+00151212   0.198E+01    0.864E+00
DAV:   9    -0.451222449304E+02   -0.38266E-01   -0.20157E-01148677   0.428E+00    0.196E+00
DAV:  10    -0.451173280311E+02    0.49169E-02   -0.75493E-02196476   0.415E+00    0.958E-01
DAV:  11    -0.451178356290E+02   -0.50760E-03   -0.17211E-02150702   0.107E+00    0.528E-01
DAV:  12    -0.451172105535E+02    0.62508E-03   -0.56400E-03180720   0.805E-01    0.186E-01
DAV:  13    -0.451170757076E+02    0.13485E-03   -0.13290E-03153798   0.345E-01    0.983E-02
DAV:  14    -0.451170229269E+02    0.52781E-04   -0.10984E-04152955   0.148E-01    0.296E-02
DAV:  15    -0.451170060300E+02    0.16897E-04   -0.32543E-05118329   0.640E-02    0.138E-02
DAV:  16    -0.451170060433E+02   -0.13328E-07   -0.13656E-05 77805   0.417E-02
   1 F= -.45117006E+02 E0= -.45117006E+02  d E =-.451170E+02  mag=    -0.0000
       N       E                     dE             d eps       ncg     rms          rms(c)
DAV:   1    -0.451205993210E+02   -0.35933E-02   -0.30067E-01141915   0.448E+00    0.586E-01
DAV:   2    -0.451178021507E+02    0.27972E-02   -0.21619E-02159012   0.198E+00    0.325E-01
DAV:   3    -0.451176749330E+02    0.12722E-03   -0.73208E-04161670   0.357E-01    0.169E-01
DAV:   4    -0.451176205711E+02    0.54362E-04   -0.13828E-04194670   0.118E-01    0.827E-02
DAV:   5    -0.451176073680E+02    0.13203E-04   -0.69154E-05116487   0.909E-02    0.335E-02
DAV:   6    -0.451176146464E+02   -0.72784E-05   -0.21829E-05 79341   0.460E-02
   2 F= -.45117615E+02 E0= -.45117615E+02  d E =-.608603E-03  mag=     0.0000
       N       E                     dE             d eps       ncg     rms          rms(c)
DAV:   1    -0.451222936972E+02   -0.46863E-02   -0.43718E-01141792   0.542E+00    0.708E-01
DAV:   2    -0.451182456443E+02    0.40481E-02   -0.31550E-02159249   0.239E+00    0.394E-01
DAV:   3    -0.451180523426E+02    0.19330E-03   -0.10659E-03161589   0.430E-01    0.204E-01
DAV:   4    -0.451179659976E+02    0.86345E-04   -0.19927E-04196056   0.142E-01    0.101E-01
DAV:   5    -0.451179402564E+02    0.25741E-04   -0.10234E-04142209   0.110E-01    0.414E-02
DAV:   6    -0.451179492286E+02   -0.89722E-05   -0.30198E-05 82101   0.545E-02
   3 F= -.45117949E+02 E0= -.45117949E+02  d E =-.943185E-03  mag=    -0.0000
       N       E                     dE             d eps       ncg     rms          rms(c)
DAV:   1    -0.451210240998E+02   -0.30838E-02   -0.22120E-01141840   0.386E+00    0.532E-01
DAV:   2    -0.451188120238E+02    0.22121E-02   -0.15793E-02158055   0.184E+00    0.349E-01
DAV:   3    -0.451185360388E+02    0.27599E-03   -0.73829E-04167274   0.363E-01    0.177E-01
DAV:   4    -0.451184187969E+02    0.11724E-03   -0.31587E-04200031   0.166E-01    0.841E-02
DAV:   5    -0.451183988234E+02    0.19973E-04   -0.19374E-04161190   0.114E-01    0.437E-02
DAV:   6    -0.451184047151E+02   -0.58916E-05   -0.27246E-05 74907   0.610E-02
   4 F= -.45118405E+02 E0= -.45118405E+02  d E =-.455486E-03  mag=    -0.0000
