       N       E                     dE             d eps       ncg     rms          ort
DAV:   1     0.550324745812E+04    0.55032E+04   -0.18068E+05 21344   0.202E+03
DAV:   2     0.528835701835E+03   -0.49744E+04   -0.45336E+04 21344   0.559E+02
DAV:   3    -0.416498836851E+03   -0.94533E+03   -0.91665E+03 21344   0.257E+02
DAV:   4    -0.478080884472E+03   -0.61582E+02   -0.60678E+02 21344   0.666E+01
DAV:   5    -0.479652987296E+03   -0.15721E+01   -0.15670E+01 21344   0.122E+01
SDA:   6    -0.287604332907E+03    0.19205E+03   -0.15670E+01 21344   0.459E+03 0.000E+00
CGA:   7    -0.346730057329E+03   -0.59126E+02   -0.60185E+02 21344   0.580E+02 0.421E+00
CGA:   8    -0.355486601645E+03   -0.87565E+01   -0.87719E+01 21344   0.157E+02 0.119E+00
CGA:   9    -0.358699689785E+03   -0.32131E+01   -0.32123E+01 21344   0.763E+01 0.705E-01
CGA:  10    -0.360498440782E+03   -0.17988E+01   -0.18008E+01 21344   0.454E+01-0.358E-01
CGA:  11    -0.361552784726E+03   -0.10543E+01   -0.10582E+01 21344   0.183E+01-0.843E-01
CGA:  12    -0.361949740160E+03   -0.39696E+00   -0.39767E+00 21344   0.609E+00-0.285E-01
CGA:  13    -0.362090110592E+03   -0.14037E+00   -0.14066E+00 21344   0.188E+00-0.816E-02
CGA:  14    -0.362135744541E+03   -0.45634E-01   -0.45649E-01 21344   0.669E-01-0.300E-03
CGA:  15    -0.362155125296E+03   -0.19381E-01   -0.19268E-01 21344   0.307E-01 0.134E-02
CGA:  16    -0.362164709760E+03   -0.95845E-02   -0.94839E-02 21344   0.135E-01 0.106E-02
CGA:  17    -0.362168591749E+03   -0.38820E-02   -0.38232E-02 21344   0.450E-02 0.965E-03
CGA:  18    -0.362169880263E+03   -0.12885E-02   -0.12653E-02 21344   0.129E-02 0.497E-03
CGA:  19    -0.362170317989E+03   -0.43773E-03   -0.44232E-03 21344   0.434E-03-0.504E-04
CGA:  20    -0.362170459171E+03   -0.14118E-03   -0.21187E-03 21344   0.326E-03-0.248E-03
CGA:  21    -0.362170529919E+03   -0.70748E-04   -0.71973E-04 21344   0.489E-04 0.756E-04
CGA:  22    -0.362170544046E+03   -0.14128E-04   -0.14155E-04 21344   0.152E-04 0.220E-04
CGA:  23    -0.362170552227E+03   -0.81807E-05   -0.81441E-05 21344   0.563E-05 0.219E-06
   1 F= -.36217055E+03 E0= -.36217055E+03  d E =-.362171E+03  mag=    30.0000
       N       E                     dE             d eps       ncg     rms          ort
SDA:   1    -0.362083855691E+03    0.86688E-01    0.00000E+00 21344   0.289E+00 0.000E+00
CGA:   2    -0.362138139766E+03   -0.54284E-01   -0.54123E-01 21344   0.129E+00-0.225E-02
CGA:   3    -0.362164841378E+03   -0.26702E-01   -0.26824E-01 21344   0.348E-01 0.227E-02
CGA:   4    -0.362170614190E+03   -0.57728E-02   -0.58314E-02 21344   0.946E-02 0.615E-03
CGA:   5    -0.362172264851E+03   -0.16507E-02   -0.16501E-02 21344   0.275E-02-0.848E-05
CGA:   6    -0.362172815375E+03   -0.55052E-03   -0.55655E-03 21344   0.814E-03 0.124E-03
CGA:   7    -0.362173004283E+03   -0.18891E-03   -0.18910E-03 21344   0.348E-03 0.731E-05
CGA:   8    -0.362173108826E+03   -0.10454E-03   -0.16267E-03 21344   0.491E-03-0.269E-03
CGA:   9    -0.362173165911E+03   -0.57084E-04   -0.66408E-04 21344   0.642E-04 0.759E-04
CGA:  10    -0.362173173221E+03   -0.73103E-05   -0.10696E-04 21344   0.204E-04 0.315E-04
   2 F= -.36217317E+03 E0= -.36217317E+03  d E =-.262099E-02  mag=    30.0000
       N       E                     dE             d eps       ncg     rms          ort
SDA:   1    -0.362063019939E+03    0.11015E+00    0.00000E+00 21344   0.355E+00 0.000E+00
CGA:   2    -0.362129757584E+03   -0.66738E-01   -0.66600E-01 21344   0.159E+00-0.278E-02
CGA:   3    -0.362162504854E+03   -0.32747E-01   -0.32832E-01 21344   0.427E-01 0.266E-02
CGA:   4    -0.362169610813E+03   -0.71060E-02   -0.71585E-02 21344   0.116E-01 0.720E-03
CGA:   5    -0.362171637446E+03   -0.20266E-02   -0.20252E-02 21344   0.337E-02-0.248E-04
CGA:   6    -0.362172317135E+03   -0.67969E-03   -0.68386E-03 21344   0.100E-02 0.148E-03
CGA:   7    -0.362172549166E+03   -0.23203E-03   -0.23210E-03 21344   0.426E-03 0.895E-05
CGA:   8    -0.362172674156E+03   -0.12499E-03   -0.19483E-03 21344   0.565E-03-0.313E-03
CGA:   9    -0.362172741612E+03   -0.67456E-04   -0.76698E-04 21344   0.745E-04 0.881E-04
CGA:  10    -0.362172750929E+03   -0.93172E-05   -0.12563E-04 21344   0.238E-04 0.363E-04
   3 F= -.36217275E+03 E0= -.36217275E+03  d E =-.219870E-02  mag=    30.0000
       N       E                     dE             d eps       ncg     rms          ort
SDA:   1    -0.362145778457E+03    0.26963E-01    0.00000E+00 21344   0.882E-01 0.000E+00
CGA:   2    -0.362162041716E+03   -0.16263E-01   -0.16329E-01 21344   0.384E-01 0.156E-02
CGA:   3    -0.362170827128E+03   -0.87854E-02   -0.87845E-02 21344   0.120E-01-0.139E-02
CGA:   4    -0.362172720657E+03   -0.18935E-02   -0.18751E-02 21344   0.328E-02-0.296E-03
CGA:   5    -0.362173239473E+03   -0.51882E-03   -0.51920E-03 21344   0.908E-03 0.577E-05
CGA:   6    -0.362173448358E+03   -0.20889E-03   -0.21008E-03 21344   0.360E-03-0.104E-03
CGA:   7    -0.362173507129E+03   -0.58770E-04   -0.59278E-04 21344   0.119E-03 0.149E-04
CGA:   8    -0.362173519957E+03   -0.12828E-04   -0.17290E-04 21344   0.432E-04 0.566E-04
CGA:   9    -0.362173523799E+03   -0.38420E-05   -0.70851E-05 21344   0.178E-04 0.314E-04
   4 F= -.36217352E+03 E0= -.36217352E+03  d E =-.297157E-02  mag=    30.0000
       N       E                     dE             d eps       ncg     rms          ort
SDA:   1    -0.362148508277E+03    0.25012E-01    0.00000E+00 21344   0.686E-01 0.000E+00
CGA:   2    -0.362166409456E+03   -0.17901E-01   -0.17907E-01 21344   0.399E-01-0.198E-03
CGA:   3    -0.362172885465E+03   -0.64760E-02   -0.65720E-02 21344   0.753E-02 0.166E-02
CGA:   4    -0.362174123221E+03   -0.12378E-02   -0.12545E-02 21344   0.203E-02 0.277E-03
CGA:   5    -0.362174498036E+03   -0.37481E-03   -0.37360E-03 21344   0.592E-03-0.319E-04
CGA:   6    -0.362174591072E+03   -0.93036E-04   -0.97654E-04 21344   0.131E-03 0.981E-04
CGA:   7    -0.362174614603E+03   -0.23532E-04   -0.25424E-04 21344   0.443E-04 0.411E-04
CGA:   8    -0.362174630364E+03   -0.15761E-04   -0.28431E-04 21344   0.887E-04-0.456E-04
CGA:   9    -0.362174640970E+03   -0.10606E-04   -0.12119E-04 21344   0.128E-04 0.173E-04
CGA:  10    -0.362174643134E+03   -0.21638E-05   -0.24562E-05 21344   0.320E-05 0.497E-05
   5 F= -.36217464E+03 E0= -.36217464E+03  d E =-.111934E-02  mag=    30.0000
       N       E                     dE             d eps       ncg     rms          ort
SDA:   1    -0.362153147419E+03    0.21494E-01    0.00000E+00 21344   0.582E-01 0.000E+00
CGA:   2    -0.362168228737E+03   -0.15081E-01   -0.15087E-01 21344   0.337E-01-0.240E-03
CGA:   3    -0.362173647126E+03   -0.54184E-02   -0.55157E-02 21344   0.670E-02 0.141E-02
CGA:   4    -0.362174721651E+03   -0.10745E-02   -0.10934E-02 21344   0.182E-02 0.257E-03
CGA:   5    -0.362175052714E+03   -0.33106E-03   -0.32927E-03 21344   0.521E-03-0.362E-04
CGA:   6    -0.362175134669E+03   -0.81955E-04   -0.86463E-04 21344   0.117E-03 0.840E-04
CGA:   7    -0.362175154479E+03   -0.19810E-04   -0.22006E-04 21344   0.384E-04 0.380E-04
CGA:   8    -0.362175169429E+03   -0.14950E-04   -0.23473E-04 21344   0.684E-04-0.349E-04
CGA:   9    -0.362175178148E+03   -0.87190E-05   -0.96786E-05 21344   0.983E-05 0.109E-04
   6 F= -.36217518E+03 E0= -.36217518E+03  d E =-.165435E-02  mag=    30.0000
       N       E                     dE             d eps       ncg     rms          ort
SDA:   1    -0.362086389002E+03    0.88780E-01    0.00000E+00 21344   0.233E+00 0.000E+00
CGA:   2    -0.362146412507E+03   -0.60024E-01   -0.60029E-01 21344   0.134E+00-0.335E-03
CGA:   3    -0.362169031615E+03   -0.22619E-01   -0.22788E-01 21344   0.258E-01 0.306E-02
CGA:   4    -0.362173334448E+03   -0.43028E-02   -0.43281E-02 21344   0.689E-02 0.427E-03
CGA:   5    -0.362174546981E+03   -0.12125E-02   -0.12092E-02 21344   0.199E-02-0.750E-04
CGA:   6    -0.362174896768E+03   -0.34979E-03   -0.35613E-03 21344   0.460E-03 0.179E-03
CGA:   7    -0.362174993196E+03   -0.96427E-04   -0.97693E-04 21344   0.159E-03 0.639E-04
CGA:   8    -0.362175046818E+03   -0.53622E-04   -0.77727E-04 21344   0.205E-03-0.112E-03
CGA:   9    -0.362175068956E+03   -0.22138E-04   -0.26573E-04 21344   0.287E-04 0.467E-04
CGA:  10    -0.362175073256E+03   -0.43006E-05   -0.52644E-05 21344   0.101E-04 0.137E-04
   7 F= -.36217507E+03 E0= -.36217507E+03  d E =-.154946E-02  mag=    30.0000
       N       E                     dE             d eps       ncg     rms          ort
SDA:   1    -0.362113476930E+03    0.61592E-01    0.00000E+00 21344   0.170E+00 0.000E+00
CGA:   2    -0.362157839645E+03   -0.44363E-01   -0.44180E-01 21344   0.872E-01 0.484E-02
CGA:   3    -0.362173665607E+03   -0.15826E-01   -0.15805E-01 21344   0.176E-01-0.546E-03
CGA:   4    -0.362176614368E+03   -0.29488E-02   -0.29684E-02 21344   0.433E-02 0.367E-03
CGA:   5    -0.362177298135E+03   -0.68377E-03   -0.69825E-03 21344   0.113E-02 0.234E-03
CGA:   6    -0.362177538876E+03   -0.24074E-03   -0.24096E-03 21344   0.314E-03 0.157E-04
CGA:   7    -0.362177585497E+03   -0.46620E-04   -0.51623E-04 21344   0.933E-04 0.934E-04
CGA:   8    -0.362177595019E+03   -0.95219E-05   -0.15099E-04 21344   0.403E-04 0.634E-04
   8 F= -.36217760E+03 E0= -.36217760E+03  d E =-.252176E-02  mag=    30.0000
       N       E                     dE             d eps       ncg     rms          ort
SDA:   1    -0.362003409801E+03    0.17418E+00    0.00000E+00 21344   0.459E+00 0.000E+00
CGA:   2    -0.362124731578E+03   -0.12132E+00   -0.12086E+00 21344   0.239E+00 0.845E-02
CGA:   3    -0.362167140676E+03   -0.42409E-01   -0.42382E-01 21344   0.473E-01-0.103E-02
CGA:   4    -0.362175256535E+03   -0.81159E-02   -0.81357E-02 21344   0.116E-01 0.502E-03
CGA:   5    -0.362177167367E+03   -0.19108E-02   -0.19273E-02 21344   0.308E-02 0.370E-03
CGA:   6    -0.362177808226E+03   -0.64086E-03   -0.64091E-03 21344   0.824E-03 0.124E-04
CGA:   7    -0.362177954947E+03   -0.14672E-03   -0.15093E-03 21344   0.246E-03 0.180E-03
CGA:   8    -0.362177995615E+03   -0.40669E-04   -0.46736E-04 21344   0.874E-04 0.124E-03
CGA:   9    -0.362178030488E+03   -0.34873E-04   -0.36134E-04 21344   0.861E-04-0.599E-05
CGA:  10    -0.362178042465E+03   -0.11977E-04   -0.13442E-04 21344   0.258E-04 0.325E-04
CGA:  11    -0.362178044429E+03   -0.19641E-05   -0.38195E-05 21344   0.100E-04 0.180E-04
   9 F= -.36217804E+03 E0= -.36217804E+03  d E =-.297117E-02  mag=    30.0000
       N       E                     dE             d eps       ncg     rms          ort
SDA:   1    -0.362160170013E+03    0.17872E-01    0.00000E+00 21344   0.464E-01 0.000E+00
CGA:   2    -0.362173016221E+03   -0.12846E-01   -0.13046E-01 21344   0.283E-01-0.259E-02
CGA:   3    -0.362177215958E+03   -0.41997E-02   -0.42267E-02 21344   0.470E-02 0.538E-03
CGA:   4    -0.362178047472E+03   -0.83151E-03   -0.83346E-03 21344   0.125E-02 0.616E-04
CGA:   5    -0.362178286840E+03   -0.23937E-03   -0.23679E-03 21344   0.436E-03-0.164E-03
CGA:   6    -0.362178358062E+03   -0.71222E-04   -0.70952E-04 21344   0.113E-03-0.180E-04
CGA:   7    -0.362178385606E+03   -0.27544E-04   -0.31818E-04 21344   0.845E-04-0.458E-04
CGA:   8    -0.362178410955E+03   -0.25348E-04    0.22743E-04 21344   0.320E-04-0.105E-04
CGA:   9    -0.362178418007E+03   -0.70526E-05   -0.86972E-05 21344   0.287E-04-0.158E-04
  10 F= -.36217842E+03 E0= -.36217842E+03  d E =-.334475E-02  mag=    30.0000
       N       E                     dE             d eps       ncg     rms          ort
SDA:   1    -0.362173430892E+03    0.49801E-02    0.00000E+00 21344   0.123E-01 0.000E+00
CGA:   2    -0.362177002825E+03   -0.35719E-02   -0.37075E-02 21344   0.831E-02-0.140E-02
CGA:   3    -0.362178066389E+03   -0.10636E-02   -0.10786E-02 21344   0.146E-02 0.238E-03
CGA:   4    -0.362178295611E+03   -0.22922E-03   -0.23386E-03 21344   0.325E-03 0.943E-04
CGA:   5    -0.362178375057E+03   -0.79447E-04   -0.84525E-04 21344   0.177E-03-0.121E-03
CGA:   6    -0.362178391501E+03   -0.16443E-04   -0.16928E-04 21344   0.627E-04 0.935E-05
CGA:   7    -0.362178400424E+03   -0.89234E-05   -0.92816E-05 21344   0.222E-04 0.584E-05
  11 F= -.36217840E+03 E0= -.36217840E+03  d E =-.332717E-02  mag=    30.0000
       N       E                     dE             d eps       ncg     rms          ort
SDA:   1    -0.362152700084E+03    0.25691E-01    0.00000E+00 21344   0.828E-01 0.000E+00
CGA:   2    -0.362169312614E+03   -0.16613E-01   -0.16609E-01 21344   0.383E-01 0.236E-02
CGA:   3    -0.362177592503E+03   -0.82799E-02   -0.82875E-02 21344   0.104E-01-0.694E-03
CGA:   4    -0.362179224070E+03   -0.16316E-02   -0.16387E-02 21344   0.265E-02 0.175E-03
CGA:   5    -0.362179636292E+03   -0.41222E-03   -0.42112E-03 21344   0.693E-03 0.215E-03
CGA:   6    -0.362179812636E+03   -0.17634E-03   -0.17805E-03 21344   0.273E-03-0.410E-04
CGA:   7    -0.362179867026E+03   -0.54390E-04   -0.54424E-04 21344   0.112E-03-0.253E-05
CGA:   8    -0.362179882971E+03   -0.15945E-04   -0.17607E-04 21344   0.365E-04 0.421E-04
CGA:   9    -0.362179888741E+03   -0.57707E-05   -0.69409E-05 21344   0.147E-04 0.201E-04
CGA:  10    -0.362179894591E+03   -0.58502E-05    0.56831E-04 21344   0.642E-05 0.707E-05
  12 F= -.36217989E+03 E0= -.36217989E+03  d E =-.149417E-02  mag=    30.0000
       N       E                     dE             d eps       ncg     rms          ort
SDA:   1    -0.362161345354E+03    0.18543E-01    0.00000E+00 21344   0.588E-01 0.000E+00
CGA:   2    -0.362172995171E+03   -0.11650E-01   -0.11664E-01 21344   0.268E-01 0.190E-02
CGA:   3    -0.362178897855E+03   -0.59027E-02   -0.59069E-02 21344   0.737E-02-0.574E-03
CGA:   4    -0.362180047472E+03   -0.11496E-02   -0.11567E-02 21344   0.184E-02 0.152E-03
CGA:   5    -0.362180330109E+03   -0.28264E-03   -0.29092E-03 21344   0.477E-03 0.169E-03
CGA:   6    -0.362180455855E+03   -0.12575E-03   -0.12736E-03 21344   0.196E-03-0.377E-04
CGA:   7    -0.362180493384E+03   -0.37528E-04   -0.37528E-04 21344   0.782E-04 0.748E-08
CGA:   8    -0.362180503401E+03   -0.10017E-04   -0.11740E-04 21344   0.271E-04 0.322E-04
CGA:   9    -0.362180507112E+03   -0.37105E-05   -0.49045E-05 21344   0.109E-04 0.164E-04
CGA:  10    -0.362180511502E+03   -0.43899E-05    0.48769E-04 21344   0.473E-05 0.547E-05
  13 F= -.36218051E+03 E0= -.36218051E+03  d E =-.211108E-02  mag=    30.0000
       N       E                     dE             d eps       ncg     rms          ort
SDA:   1    -0.362102536504E+03    0.77971E-01    0.00000E+00 21344   0.235E+00 0.000E+00
CGA:   2    -0.362150055228E+03   -0.47519E-01   -0.47500E-01 21344   0.111E+00 0.394E-02
CGA:   3    -0.362173336142E+03   -0.23281E-01   -0.23292E-01 21344   0.289E-01-0.113E-02
CGA:   4    -0.362177989960E+03   -0.46538E-02   -0.46638E-02 21344   0.750E-02 0.276E-03
CGA:   5    -0.362179200148E+03   -0.12102E-02   -0.12229E-02 21344   0.202E-02 0.367E-03
CGA:   6    -0.362179685539E+03   -0.48539E-03   -0.48806E-03 21344   0.725E-03-0.755E-04
CGA:   7    -0.362179838022E+03   -0.15248E-03   -0.15261E-03 21344   0.307E-03-0.595E-05
CGA:   8    -0.362179892662E+03   -0.54641E-04   -0.55829E-04 21344   0.873E-04 0.850E-04
CGA:   9    -0.362179912326E+03   -0.19664E-04   -0.20191E-04 21344   0.362E-04 0.340E-04
CGA:  10    -0.362179928326E+03   -0.16000E-04   -0.17246E-04 21344   0.235E-04-0.850E-05
CGA:  11    -0.362179932108E+03   -0.37818E-05   -0.37879E-05 21344   0.102E-04-0.852E-06
  14 F= -.36217993E+03 E0= -.36217993E+03  d E =-.153168E-02  mag=    30.0000
       N       E                     dE             d eps       ncg     rms          ort
SDA:   1    -0.362140917404E+03    0.39011E-01    0.00000E+00 21344   0.119E+00 0.000E+00
CGA:   2    -0.362165717235E+03   -0.24800E-01   -0.24827E-01 21344   0.600E-01-0.280E-02
CGA:   3    -0.362177114831E+03   -0.11398E-01   -0.11403E-01 21344   0.140E-01 0.969E-03
CGA:   4    -0.362179513136E+03   -0.23983E-02   -0.23973E-02 21344   0.388E-02-0.345E-04
CGA:   5    -0.362180219814E+03   -0.70668E-03   -0.70172E-03 21344   0.131E-02-0.299E-03
CGA:   6    -0.362180450280E+03   -0.23047E-03   -0.23067E-03 21344   0.355E-03 0.365E-04
CGA:   7    -0.362180519883E+03   -0.69604E-04   -0.69849E-04 21344   0.127E-03 0.438E-04
CGA:   8    -0.362180531250E+03   -0.11367E-04   -0.90872E-04 21344   0.419E-03-0.180E-03
CGA:   9    -0.362180587380E+03   -0.56130E-04   -0.60559E-04 21344   0.504E-04 0.597E-04
CGA:  10    -0.362180595503E+03   -0.81227E-05   -0.91598E-05 21344   0.109E-04 0.186E-04
  15 F= -.36218060E+03 E0= -.36218060E+03  d E =-.219508E-02  mag=    30.0000
       N       E                     dE             d eps       ncg     rms          ort
SDA:   1    -0.362144298499E+03    0.36289E-01    0.00000E+00 21344   0.970E-01 0.000E+00
CGA:   2    -0.362171177543E+03   -0.26879E-01   -0.26790E-01 21344   0.456E-01 0.137E-02
CGA:   3    -0.362179312682E+03   -0.81351E-02   -0.80921E-02 21344   0.102E-01-0.110E-02
CGA:   4    -0.362180971375E+03   -0.16587E-02   -0.16745E-02 21344   0.250E-02 0.347E-03
CGA:   5    -0.362181361644E+03   -0.39027E-03   -0.40217E-03 21344   0.609E-03 0.216E-03
CGA:   6    -0.362181522070E+03   -0.16043E-03   -0.16581E-03 21344   0.280E-03-0.125E-03
CGA:   7    -0.362181571359E+03   -0.49288E-04   -0.49800E-04 21344   0.119E-03-0.357E-04
CGA:   8    -0.362181587136E+03   -0.15777E-04   -0.16997E-04 21344   0.357E-04 0.258E-04
CGA:   9    -0.362181594032E+03   -0.68969E-05   -0.73302E-05 21344   0.148E-04 0.110E-04
  16 F= -.36218159E+03 E0= -.36218159E+03  d E =-.998530E-03  mag=    30.0000
       N       E                     dE             d eps       ncg     rms          ort
SDA:   1    -0.361883666198E+03    0.29792E+00    0.00000E+00 21344   0.773E+00 0.000E+00
CGA:   2    -0.362099975857E+03   -0.21631E+00   -0.21608E+00 21344   0.371E+00 0.342E-02
CGA:   3    -0.362163296073E+03   -0.63320E-01   -0.63205E-01 21344   0.795E-01-0.278E-02
CGA:   4    -0.362176948431E+03   -0.13652E-01   -0.13691E-01 21344   0.208E-01 0.946E-03
CGA:   5    -0.362180301137E+03   -0.33527E-02   -0.33839E-02 21344   0.530E-02 0.623E-03
CGA:   6    -0.362181461355E+03   -0.11602E-02   -0.11616E-02 21344   0.171E-02-0.298E-03
CGA:   7    -0.362181837181E+03   -0.37583E-03   -0.37992E-03 21344   0.779E-03-0.151E-03
CGA:   8    -0.362181978174E+03   -0.14099E-03   -0.14180E-03 21344   0.203E-03 0.814E-04
CGA:   9    -0.362182029206E+03   -0.51031E-04   -0.50381E-04 21344   0.806E-04 0.424E-04
CGA:  10    -0.362182057256E+03   -0.28051E-04   -0.28844E-04 21344   0.394E-04-0.922E-05
CGA:  11    -0.362182063362E+03   -0.61052E-05   -0.63731E-05 21344   0.129E-04 0.855E-05
  17 F= -.36218206E+03 E0= -.36218206E+03  d E =-.146786E-02  mag=    30.0000
       N       E                     dE             d eps       ncg     rms          ort
SDA:   1    -0.362144931053E+03    0.37126E-01    0.00000E+00 21344   0.966E-01 0.000E+00
CGA:   2    -0.362172254582E+03   -0.27324E-01   -0.27422E-01 21344   0.479E-01-0.132E-02
CGA:   3    -0.362179850698E+03   -0.75961E-02   -0.76510E-02 21344   0.944E-02 0.110E-02
CGA:   4    -0.362181634300E+03   -0.17836E-02   -0.17774E-02 21344   0.284E-02-0.247E-03
CGA:   5    -0.362182121881E+03   -0.48758E-03   -0.47948E-03 21344   0.854E-03-0.235E-03
CGA:   6    -0.362182244355E+03   -0.12247E-03   -0.12640E-03 21344   0.190E-03 0.873E-04
CGA:   7    -0.362182271277E+03   -0.26923E-04   -0.30863E-04 21344   0.660E-04 0.693E-04
CGA:   8    -0.362182290329E+03   -0.19052E-04   -0.18914E-04 21344   0.324E-04 0.156E-04
CGA:   9    -0.362182288782E+03    0.15470E-05   -0.25518E-04 21344   0.145E-03-0.622E-04
CGA:  10    -0.362182303357E+03   -0.14575E-04   -0.18077E-04 21344   0.205E-04 0.354E-04
CGA:  11    -0.362182305898E+03   -0.25412E-05   -0.34335E-05 21344   0.787E-05 0.107E-04
  18 F= -.36218231E+03 E0= -.36218231E+03  d E =-.171039E-02  mag=    30.0000
       N       E                     dE             d eps       ncg     rms          ort
SDA:   1    -0.362163153726E+03    0.19150E-01    0.00000E+00 21344   0.509E-01 0.000E+00
CGA:   2    -0.362177478639E+03   -0.14325E-01   -0.14419E-01 21344   0.277E-01-0.137E-02
CGA:   3    -0.362181655820E+03   -0.41772E-02   -0.42157E-02 21344   0.522E-02 0.632E-03
CGA:   4    -0.362182543272E+03   -0.88745E-03   -0.89407E-03 21344   0.145E-02 0.141E-03
CGA:   5    -0.362182811604E+03   -0.26833E-03   -0.26607E-03 21344   0.413E-03-0.678E-04
CGA:   6    -0.362182885230E+03   -0.73626E-04   -0.73555E-04 21344   0.109E-03-0.303E-05
CGA:   7    -0.362182913086E+03   -0.27856E-04   -0.32163E-04 21344   0.866E-04-0.487E-04
CGA:   8    -0.362182933850E+03   -0.20764E-04    0.33821E-03 21344   0.358E-04-0.163E-04
CGA:   9    -0.362182940198E+03   -0.63475E-05   -0.63628E-05 21344   0.174E-04-0.307E-05
  19 F= -.36218294E+03 E0= -.36218294E+03  d E =-.634300E-03  mag=    30.0000
