       N       E                     dE             d eps       ncg     rms          ort
DAV:   1     0.246349629030E+04    0.24635E+04   -0.79879E+04 22672   0.206E+03
DAV:   2     0.236622692981E+03   -0.22269E+04   -0.20433E+04 22672   0.588E+02
DAV:   3    -0.180440439708E+03   -0.41706E+03   -0.40697E+03 22672   0.257E+02
DAV:   4    -0.204837001408E+03   -0.24397E+02   -0.24115E+02 22672   0.640E+01
DAV:   5    -0.205389462517E+03   -0.55246E+00   -0.55118E+00 22672   0.110E+01
SDA:   6    -0.129218011617E+03    0.76171E+02   -0.55118E+00 22672   0.169E+03 0.000E+00
CGA:   7    -0.152063171068E+03   -0.22845E+02   -0.23230E+02 22672   0.234E+02 0.296E+00
CGA:   8    -0.155632147543E+03   -0.35690E+01   -0.35730E+01 22672   0.610E+01 0.191E-01
CGA:   9    -0.156981772746E+03   -0.13496E+01   -0.13489E+01 22672   0.317E+01 0.266E-01
CGA:  10    -0.157719592435E+03   -0.73782E+00   -0.73868E+00 22672   0.170E+01-0.183E-01
CGA:  11    -0.158114576610E+03   -0.39498E+00   -0.39635E+00 22672   0.637E+00-0.333E-01
CGA:  12    -0.158246234308E+03   -0.13166E+00   -0.13179E+00 22672   0.195E+00-0.114E-01
CGA:  13    -0.158291871922E+03   -0.45638E-01   -0.45686E-01 22672   0.639E-01-0.122E-02
CGA:  14    -0.158307327851E+03   -0.15456E-01   -0.15428E-01 22672   0.215E-01 0.692E-03
CGA:  15    -0.158313982120E+03   -0.66543E-02   -0.66917E-02 22672   0.110E-01-0.367E-03
CGA:  16    -0.158317490234E+03   -0.35081E-02   -0.35520E-02 22672   0.493E-02-0.374E-03
CGA:  17    -0.158318675790E+03   -0.11856E-02   -0.11686E-02 22672   0.144E-02 0.562E-03
CGA:  18    -0.158319021341E+03   -0.34555E-03   -0.34593E-03 22672   0.440E-03 0.377E-03
CGA:  19    -0.158319164739E+03   -0.14340E-03   -0.14107E-03 22672   0.129E-03 0.620E-04
CGA:  20    -0.158319172066E+03   -0.73268E-05   -0.10593E-03 22672   0.310E-03-0.197E-03
CGA:  21    -0.158319214835E+03   -0.42769E-04   -0.51920E-04 22672   0.625E-04 0.120E-03
CGA:  22    -0.158319222998E+03   -0.81632E-05   -0.12198E-04 22672   0.220E-04 0.405E-04
CGA:  23    -0.158319199922E+03    0.23076E-04   -0.14954E-04 22672   0.133E-03-0.453E-04
CGA:  24    -0.158319217832E+03   -0.17910E-04   -0.27236E-04 22672   0.248E-04 0.414E-04
CGA:  25    -0.158319229166E+03   -0.11334E-04   -0.11211E-04 22672   0.641E-05-0.166E-05
CGA:  26    -0.158319239126E+03   -0.99599E-05    0.12195E-05 22672   0.323E-05-0.356E-05
   1 F= -.15831924E+03 E0= -.15831924E+03  d E =-.158319E+03  mag=    10.0000
       N       E                     dE             d eps       ncg     rms          ort
SDA:   1    -0.158285264682E+03    0.33964E-01    0.00000E+00 22672   0.921E-01 0.000E+00
CGA:   2    -0.158308985649E+03   -0.23721E-01   -0.23825E-01 22672   0.512E-01 0.687E-03
CGA:   3    -0.158317533521E+03   -0.85479E-02   -0.86496E-02 22672   0.119E-01 0.443E-03
CGA:   4    -0.158319450077E+03   -0.19166E-02   -0.19491E-02 22672   0.306E-02 0.147E-03
CGA:   5    -0.158320019495E+03   -0.56942E-03   -0.57872E-03 22672   0.882E-03 0.494E-04
CGA:   6    -0.158320173875E+03   -0.15438E-03   -0.15789E-03 22672   0.219E-03 0.193E-04
CGA:   7    -0.158320219495E+03   -0.45620E-04   -0.46564E-04 22672   0.717E-04 0.674E-05
CGA:   8    -0.158320237457E+03   -0.17962E-04   -0.17800E-04 22672   0.251E-04-0.160E-05
CGA:   9    -0.158320245329E+03   -0.78719E-05   -0.77573E-05 22672   0.144E-04-0.539E-05
   2 F= -.15832025E+03 E0= -.15832025E+03  d E =-.100620E-02  mag=    10.0000
       N       E                     dE             d eps       ncg     rms          ort
SDA:   1    -0.158253921085E+03    0.66316E-01    0.00000E+00 22672   0.173E+00 0.000E+00
CGA:   2    -0.158298647634E+03   -0.44727E-01   -0.44824E-01 22672   0.957E-01 0.114E-02
CGA:   3    -0.158314688021E+03   -0.16040E-01   -0.16166E-01 22672   0.222E-01 0.733E-03
CGA:   4    -0.158318288356E+03   -0.36003E-02   -0.36399E-02 22672   0.566E-02 0.239E-03
CGA:   5    -0.158319349595E+03   -0.10612E-02   -0.10708E-02 22672   0.161E-02 0.725E-04
CGA:   6    -0.158319638232E+03   -0.28864E-03   -0.29197E-03 22672   0.398E-03 0.250E-04
CGA:   7    -0.158319721955E+03   -0.83724E-04   -0.84528E-04 22672   0.129E-03 0.858E-05
CGA:   8    -0.158319752317E+03   -0.30361E-04   -0.30292E-04 22672   0.426E-04-0.103E-05
CGA:   9    -0.158319763979E+03   -0.11662E-04   -0.11572E-04 22672   0.187E-04-0.433E-05
CGA:  10    -0.158319769031E+03   -0.50521E-05   -0.50814E-05 22672   0.795E-05-0.325E-05
   3 F= -.15831977E+03 E0= -.15831977E+03  d E =-.529905E-03  mag=    10.0000
       N       E                     dE             d eps       ncg     rms          ort
SDA:   1    -0.158287646760E+03    0.32117E-01    0.00000E+00 22672   0.839E-01 0.000E+00
CGA:   2    -0.158309769552E+03   -0.22123E-01   -0.22107E-01 22672   0.477E-01-0.619E-03
CGA:   3    -0.158317833614E+03   -0.80641E-02   -0.80035E-02 22672   0.111E-01-0.513E-03
CGA:   4    -0.158319674398E+03   -0.18408E-02   -0.18193E-02 22672   0.290E-02-0.184E-03
CGA:   5    -0.158320226533E+03   -0.55213E-03   -0.54651E-03 22672   0.846E-03-0.655E-04
CGA:   6    -0.158320374339E+03   -0.14781E-03   -0.14639E-03 22672   0.211E-03-0.149E-04
CGA:   7    -0.158320417798E+03   -0.43459E-04   -0.43364E-04 22672   0.692E-04-0.161E-05
CGA:   8    -0.158320431964E+03   -0.14166E-04   -0.14377E-04 22672   0.197E-04 0.367E-05
CGA:   9    -0.158320435662E+03   -0.36976E-05   -0.40393E-05 22672   0.591E-05 0.496E-05
   4 F= -.15832044E+03 E0= -.15832044E+03  d E =-.119654E-02  mag=    10.0000
       N       E                     dE             d eps       ncg     rms          ort
SDA:   1    -0.158302202639E+03    0.18229E-01    0.00000E+00 22672   0.449E-01 0.000E+00
CGA:   2    -0.158317682729E+03   -0.15480E-01   -0.15378E-01 22672   0.159E-01 0.114E-02
CGA:   3    -0.158320179581E+03   -0.24969E-02   -0.25423E-02 22672   0.378E-02 0.427E-03
CGA:   4    -0.158320785793E+03   -0.60621E-03   -0.62460E-03 22672   0.871E-03 0.193E-03
CGA:   5    -0.158320942638E+03   -0.15685E-03   -0.16184E-03 22672   0.207E-03 0.675E-04
CGA:   6    -0.158320979844E+03   -0.37206E-04   -0.38924E-04 22672   0.506E-04 0.236E-04
CGA:   7    -0.158320988807E+03   -0.89629E-05   -0.98535E-05 22672   0.137E-04 0.130E-04
   5 F= -.15832099E+03 E0= -.15832099E+03  d E =-.553145E-03  mag=    10.0000
       N       E                     dE             d eps       ncg     rms          ort
SDA:   1    -0.158148935707E+03    0.17204E+00    0.00000E+00 22672   0.405E+00 0.000E+00
CGA:   2    -0.158289914184E+03   -0.14098E+00   -0.14048E+00 22672   0.149E+00 0.409E-02
CGA:   3    -0.158313191964E+03   -0.23278E-01   -0.23403E-01 22672   0.349E-01 0.141E-02
CGA:   4    -0.158318941350E+03   -0.57494E-02   -0.57929E-02 22672   0.835E-02 0.585E-03
CGA:   5    -0.158320458504E+03   -0.15172E-02   -0.15272E-02 22672   0.207E-02 0.188E-03
CGA:   6    -0.158320829646E+03   -0.37114E-03   -0.37506E-03 22672   0.509E-03 0.736E-04
CGA:   7    -0.158320933711E+03   -0.10407E-03   -0.10517E-03 22672   0.140E-03 0.392E-04
CGA:   8    -0.158320963049E+03   -0.29338E-04   -0.30023E-04 22672   0.410E-04 0.249E-04
CGA:   9    -0.158320971756E+03   -0.87062E-05   -0.92654E-05 22672   0.150E-04 0.171E-04
   6 F= -.15832097E+03 E0= -.15832097E+03  d E =-.536094E-03  mag=    10.0000
       N       E                     dE             d eps       ncg     rms          ort
SDA:   1    -0.158294265899E+03    0.26697E-01    0.00000E+00 22672   0.620E-01 0.000E+00
CGA:   2    -0.158316309773E+03   -0.22044E-01   -0.22198E-01 22672   0.240E-01-0.118E-02
CGA:   3    -0.158320013229E+03   -0.37035E-02   -0.36697E-02 22672   0.570E-02-0.479E-03
CGA:   4    -0.158320969019E+03   -0.95579E-03   -0.94313E-03 22672   0.145E-02-0.231E-03
CGA:   5    -0.158321228860E+03   -0.25984E-03   -0.25733E-03 22672   0.358E-03-0.681E-04
CGA:   6    -0.158321290457E+03   -0.61597E-04   -0.61478E-04 22672   0.863E-04-0.314E-05
CGA:   7    -0.158321309026E+03   -0.18569E-04   -0.18567E-04 22672   0.262E-04-0.270E-05
CGA:   8    -0.158321315487E+03   -0.64605E-05   -0.67459E-05 22672   0.129E-04-0.590E-05
   7 F= -.15832132E+03 E0= -.15832132E+03  d E =-.879825E-03  mag=    10.0000
       N       E                     dE             d eps       ncg     rms          ort
SDA:   1    -0.158314374696E+03    0.69343E-02    0.00000E+00 22672   0.176E-01 0.000E+00
CGA:   2    -0.158320682202E+03   -0.63075E-02   -0.62110E-02 22672   0.394E-02 0.710E-03
CGA:   3    -0.158321445808E+03   -0.76361E-03   -0.77234E-03 22672   0.109E-02 0.226E-03
CGA:   4    -0.158321602519E+03   -0.15671E-03   -0.16522E-03 22672   0.258E-03 0.105E-03
CGA:   5    -0.158321645298E+03   -0.42780E-04   -0.45195E-04 22672   0.674E-04 0.396E-04
CGA:   6    -0.158321656630E+03   -0.11332E-04   -0.12086E-04 22672   0.179E-04 0.121E-04
CGA:   7    -0.158321658627E+03   -0.19963E-05   -0.28008E-05 22672   0.585E-05 0.985E-05
   8 F= -.15832166E+03 E0= -.15832166E+03  d E =-.343140E-03  mag=    10.0000
       N       E                     dE             d eps       ncg     rms          ort
SDA:   1    -0.158290412860E+03    0.31244E-01    0.00000E+00 22672   0.750E-01 0.000E+00
CGA:   2    -0.158317712736E+03   -0.27300E-01   -0.27036E-01 22672   0.174E-01 0.164E-02
CGA:   3    -0.158321085526E+03   -0.33728E-02   -0.33843E-02 22672   0.455E-02 0.518E-03
CGA:   4    -0.158321796837E+03   -0.71131E-03   -0.72419E-03 22672   0.104E-02 0.225E-03
CGA:   5    -0.158321990934E+03   -0.19410E-03   -0.19619E-03 22672   0.234E-03 0.723E-04
CGA:   6    -0.158322036048E+03   -0.45115E-04   -0.45619E-04 22672   0.649E-04 0.205E-04
CGA:   7    -0.158322045804E+03   -0.97559E-05   -0.10901E-04 22672   0.169E-04 0.223E-04
   9 F= -.15832205E+03 E0= -.15832205E+03  d E =-.730318E-03  mag=    10.0000
       N       E                     dE             d eps       ncg     rms          ort
SDA:   1    -0.158194413906E+03    0.12762E+00    0.00000E+00 22672   0.299E+00 0.000E+00
CGA:   2    -0.158303984576E+03   -0.10957E+00   -0.10896E+00 22672   0.705E-01 0.350E-02
CGA:   3    -0.158317651305E+03   -0.13667E-01   -0.13685E-01 22672   0.183E-01 0.113E-02
CGA:   4    -0.158320538268E+03   -0.28870E-02   -0.29077E-02 22672   0.449E-02 0.405E-03
CGA:   5    -0.158321345864E+03   -0.80760E-03   -0.81098E-03 22672   0.105E-02 0.124E-03
CGA:   6    -0.158321537620E+03   -0.19176E-03   -0.19279E-03 22672   0.294E-03 0.422E-04
CGA:   7    -0.158321591792E+03   -0.54172E-04   -0.55139E-04 22672   0.739E-04 0.465E-04
CGA:   8    -0.158321604794E+03   -0.13002E-04   -0.14065E-04 22672   0.248E-04 0.297E-04
CGA:   9    -0.158321609582E+03   -0.47881E-05   -0.54580E-05 22672   0.119E-04 0.163E-04
  10 F= -.15832161E+03 E0= -.15832161E+03  d E =-.294095E-03  mag=    10.0000
       N       E                     dE             d eps       ncg     rms          ort
SDA:   1    -0.158254642531E+03    0.66962E-01    0.00000E+00 22672   0.156E+00 0.000E+00
CGA:   2    -0.158312445586E+03   -0.57803E-01   -0.58051E-01 22672   0.389E-01-0.156E-02
CGA:   3    -0.158319809931E+03   -0.73643E-02   -0.73561E-02 22672   0.104E-01-0.530E-03
CGA:   4    -0.158321459794E+03   -0.16499E-02   -0.16343E-02 22672   0.261E-02-0.331E-03
CGA:   5    -0.158321920215E+03   -0.46042E-03   -0.45867E-03 22672   0.626E-03-0.777E-04
CGA:   6    -0.158322023098E+03   -0.10288E-03   -0.10342E-03 22672   0.169E-03 0.161E-04
CGA:   7    -0.158322062254E+03   -0.39156E-04   -0.39834E-04 22672   0.693E-04-0.241E-04
CGA:   8    -0.158322076754E+03   -0.14500E-04   -0.18844E-04 22672   0.636E-04-0.381E-04
CGA:   9    -0.158322083232E+03   -0.64779E-05   -0.75323E-05 22672   0.890E-05 0.117E-04
  11 F= -.15832208E+03 E0= -.15832208E+03  d E =-.767745E-03  mag=    10.0000
       N       E                     dE             d eps       ncg     rms          ort
SDA:   1    -0.158320961351E+03    0.11154E-02    0.00000E+00 22672   0.245E-02 0.000E+00
CGA:   2    -0.158321904723E+03   -0.94337E-03   -0.99980E-03 22672   0.786E-03-0.275E-03
CGA:   3    -0.158322031817E+03   -0.12709E-03   -0.12481E-03 22672   0.261E-03-0.715E-04
CGA:   4    -0.158322068583E+03   -0.36767E-04   -0.34252E-04 22672   0.929E-04-0.387E-04
CGA:   5    -0.158322082209E+03   -0.13626E-04   -0.13123E-04 22672   0.267E-04-0.125E-04
CGA:   6    -0.158322084598E+03   -0.23890E-05   -0.29096E-05 22672   0.632E-05 0.663E-05
  12 F= -.15832208E+03 E0= -.15832208E+03  d E =-.769112E-03  mag=    10.0000
       N       E                     dE             d eps       ncg     rms          ort
SDA:   1    -0.158320911765E+03    0.11704E-02    0.00000E+00 22672   0.255E-02 0.000E+00
CGA:   2    -0.158321879523E+03   -0.96776E-03   -0.10276E-02 22672   0.804E-03-0.289E-03
CGA:   3    -0.158322018051E+03   -0.13853E-03   -0.13747E-03 22672   0.270E-03-0.856E-04
CGA:   4    -0.158322059329E+03   -0.41279E-04   -0.39439E-04 22672   0.808E-04-0.447E-04
CGA:   5    -0.158322070240E+03   -0.10911E-04   -0.10727E-04 22672   0.245E-04-0.420E-05
CGA:   6    -0.158322072431E+03   -0.21913E-05   -0.27144E-05 22672   0.604E-05 0.624E-05
  13 F= -.15832207E+03 E0= -.15832207E+03  d E =-.756945E-03  mag=    10.0000
       N       E                     dE             d eps       ncg     rms          ort
SDA:   1    -0.158321760553E+03    0.30969E-03    0.00000E+00 22672   0.620E-03 0.000E+00
CGA:   2    -0.158321997598E+03   -0.23704E-03   -0.27993E-03 22672   0.309E-03-0.166E-03
CGA:   3    -0.158322035690E+03   -0.38092E-04   -0.36304E-04 22672   0.136E-03-0.404E-04
CGA:   4    -0.158322055821E+03   -0.20131E-04   -0.19122E-04 22672   0.481E-04-0.249E-04
CGA:   5    -0.158322061867E+03   -0.60464E-05   -0.59666E-05 22672   0.164E-04-0.164E-05
CGA:   6    -0.158322063012E+03   -0.11453E-05   -0.17644E-05 22672   0.630E-05 0.713E-05
  14 F= -.15832206E+03 E0= -.15832206E+03  d E =-.747526E-03  mag=    10.0000
       N       E                     dE             d eps       ncg     rms          ort
SDA:   1    -0.158321977760E+03    0.84107E-04    0.00000E+00 22672   0.146E-03 0.000E+00
CGA:   2    -0.158322025171E+03   -0.47411E-04   -0.80639E-04 22672   0.142E-03-0.912E-04
CGA:   3    -0.158322050422E+03   -0.25250E-04   -0.25060E-04 22672   0.341E-04-0.649E-05
CGA:   4    -0.158322054462E+03   -0.40405E-05   -0.38932E-05 22672   0.439E-05-0.174E-05
CGA:   5    -0.158322054843E+03   -0.38095E-06   -0.49176E-06 22672   0.926E-06 0.135E-05
CGA:   6    -0.158322054832E+03    0.11289E-07   -0.80183E-07 22672   0.365E-06 0.704E-06
  15 F= -.15832205E+03 E0= -.15832205E+03  d E =-.739345E-03  mag=    10.0000
       N       E                     dE             d eps       ncg     rms          ort
SDA:   1    -0.158322054288E+03    0.55505E-06    0.00000E+00 22672   0.289E-04 0.000E+00
CGA:   2    -0.158322059275E+03   -0.49870E-05   -0.50956E-05 22672   0.981E-05 0.154E-04
CGA:   3    -0.158322060012E+03   -0.73747E-06   -0.11783E-05 22672   0.534E-05 0.700E-05
CGA:   4    -0.158322060089E+03   -0.76784E-07   -0.47156E-06 22672   0.354E-05 0.431E-05
CGA:   5    -0.158322060046E+03    0.43055E-07   -0.26124E-06 22672   0.255E-05 0.299E-05
CGA:   6    -0.158322059963E+03    0.83548E-07   -0.15764E-06 22672   0.195E-05 0.222E-05
  16 F= -.15832206E+03 E0= -.15832206E+03  d E =-.744476E-03  mag=    10.0000
       N       E                     dE             d eps       ncg     rms          ort
SDA:   1    -0.158322051725E+03    0.83212E-05    0.00000E+00 22672   0.468E-05 0.000E+00
CGA:   2    -0.158322053519E+03   -0.17942E-05    0.18231E-05 22672   0.138E-05 0.218E-05
CGA:   3    -0.158322054694E+03   -0.11751E-05    0.19401E-06 22672   0.360E-06 0.740E-06
CGA:   4    -0.158322055166E+03   -0.47191E-06    0.91962E-08 22672   0.146E-06 0.205E-06
CGA:   5    -0.158322055433E+03   -0.26649E-06    0.24723E-08 22672   0.696E-07 0.952E-07
CGA:   6    -0.158322055619E+03   -0.18621E-06    0.74816E-09 22672   0.333E-07 0.452E-07
  17 F= -.15832206E+03 E0= -.15832206E+03  d E =-.740132E-03  mag=    10.0000
       N       E                     dE             d eps       ncg     rms          ort
SDA:   1    -0.158322058502E+03   -0.30695E-05    0.00000E+00 22672   0.248E-05 0.000E+00
CGA:   2    -0.158322058509E+03   -0.67330E-08   -0.17873E-06 22672   0.161E-05 0.198E-05
CGA:   3    -0.158322058467E+03    0.42442E-07   -0.92312E-07 22672   0.120E-05 0.138E-05
CGA:   4    -0.158322058415E+03    0.51582E-07   -0.57014E-07 22672   0.950E-06 0.106E-05
CGA:   5    -0.158322058364E+03    0.50728E-07   -0.38719E-07 22672   0.784E-06 0.859E-06
CGA:   6    -0.158322058317E+03    0.47113E-07   -0.27891E-07 22672   0.666E-06 0.720E-06
  18 F= -.15832206E+03 E0= -.15832206E+03  d E =-.742831E-03  mag=    10.0000
       N       E                     dE             d eps       ncg     rms          ort
SDA:   1    -0.158320815491E+03    0.12429E-02    0.00000E+00 22672   0.322E-02 0.000E+00
CGA:   2    -0.158321828193E+03   -0.10127E-02   -0.10805E-02 22672   0.198E-02-0.331E-03
CGA:   3    -0.158322112289E+03   -0.28410E-03   -0.29055E-03 22672   0.490E-03-0.273E-03
CGA:   4    -0.158322184829E+03   -0.72540E-04   -0.75031E-04 22672   0.152E-03-0.683E-04
CGA:   5    -0.158322207181E+03   -0.22352E-04   -0.22441E-04 22672   0.391E-04-0.307E-05
CGA:   6    -0.158322214282E+03   -0.71009E-05   -0.71182E-05 22672   0.109E-04-0.432E-06
  19 F= -.15832221E+03 E0= -.15832221E+03  d E =-.155965E-03  mag=    10.0000
       N       E                     dE             d eps       ncg     rms          ort
SDA:   1    -0.158310322818E+03    0.11884E-01    0.00000E+00 22672   0.290E-01 0.000E+00
CGA:   2    -0.158319270554E+03   -0.89477E-02   -0.90795E-02 22672   0.153E-01-0.797E-03
CGA:   3    -0.158321609696E+03   -0.23391E-02   -0.23427E-02 22672   0.340E-02-0.680E-03
CGA:   4    -0.158322176144E+03   -0.56645E-03   -0.57122E-03 22672   0.923E-03-0.205E-03
CGA:   5    -0.158322334229E+03   -0.15809E-03   -0.15953E-03 22672   0.237E-03-0.472E-04
CGA:   6    -0.158322378903E+03   -0.44674E-04   -0.46431E-04 22672   0.735E-04-0.344E-04
CGA:   7    -0.158322388361E+03   -0.94578E-05   -0.95383E-05 22672   0.190E-04 0.140E-04
  20 F= -.15832239E+03 E0= -.15832239E+03  d E =-.330043E-03  mag=    10.0000
       N       E                     dE             d eps       ncg     rms          ort
SDA:   1    -0.158320506104E+03    0.18728E-02    0.00000E+00 22672   0.431E-02 0.000E+00
CGA:   2    -0.158321852288E+03   -0.13462E-02   -0.13996E-02 22672   0.247E-02-0.315E-03
CGA:   3    -0.158322216415E+03   -0.36413E-03   -0.36308E-03 22672   0.601E-03-0.255E-03
CGA:   4    -0.158322308872E+03   -0.92457E-04   -0.93200E-04 22672   0.205E-03-0.705E-04
CGA:   5    -0.158322338487E+03   -0.29615E-04   -0.29622E-04 22672   0.521E-04-0.122E-04
CGA:   6    -0.158322348061E+03   -0.95739E-05   -0.99001E-05 22672   0.173E-04-0.835E-05
  21 F= -.15832235E+03 E0= -.15832235E+03  d E =-.289744E-03  mag=    10.0000
       N       E                     dE             d eps       ncg     rms          ort
SDA:   1    -0.158318819362E+03    0.35191E-02    0.00000E+00 22672   0.862E-02 0.000E+00
CGA:   2    -0.158321685491E+03   -0.28661E-02   -0.29350E-02 22672   0.369E-02-0.393E-03
CGA:   3    -0.158322290687E+03   -0.60520E-03   -0.60530E-03 22672   0.933E-03-0.390E-03
CGA:   4    -0.158322433769E+03   -0.14308E-03   -0.14308E-03 22672   0.228E-03-0.210E-04
CGA:   5    -0.158322469601E+03   -0.35832E-04   -0.35802E-04 22672   0.584E-04-0.277E-05
CGA:   6    -0.158322480203E+03   -0.10602E-04   -0.20815E-04 22672   0.887E-04-0.538E-04
CGA:   7    -0.158322485914E+03   -0.57107E-05   -0.80017E-05 22672   0.125E-04 0.254E-04
  22 F= -.15832249E+03 E0= -.15832249E+03  d E =-.137852E-03  mag=    10.0000
       N       E                     dE             d eps       ncg     rms          ort
SDA:   1    -0.158317505641E+03    0.49746E-02    0.00000E+00 22672   0.120E-01 0.000E+00
CGA:   2    -0.158321492730E+03   -0.39871E-02   -0.40628E-02 22672   0.501E-02-0.454E-03
CGA:   3    -0.158322299369E+03   -0.80664E-03   -0.80149E-03 22672   0.124E-02-0.427E-03
CGA:   4    -0.158322497228E+03   -0.19786E-03   -0.19775E-03 22672   0.326E-03-0.344E-04
CGA:   5    -0.158322546413E+03   -0.49185E-04   -0.49048E-04 22672   0.824E-04-0.608E-05
CGA:   6    -0.158322564174E+03   -0.17761E-04   -0.24609E-04 22672   0.815E-04-0.537E-04
CGA:   7    -0.158322569642E+03   -0.54681E-05   -0.74021E-05 22672   0.111E-04 0.210E-04
  23 F= -.15832257E+03 E0= -.15832257E+03  d E =-.221581E-03  mag=    10.0000
       N       E                     dE             d eps       ncg     rms          ort
SDA:   1    -0.158302565364E+03    0.19999E-01    0.00000E+00 22672   0.476E-01 0.000E+00
CGA:   2    -0.158318326348E+03   -0.15761E-01   -0.15903E-01 22672   0.192E-01-0.907E-03
CGA:   3    -0.158321440066E+03   -0.31137E-02   -0.31005E-02 22672   0.443E-02-0.825E-03
CGA:   4    -0.158322195882E+03   -0.75582E-03   -0.75570E-03 22672   0.115E-02-0.758E-04
CGA:   5    -0.158322379855E+03   -0.18397E-03   -0.18343E-03 22672   0.303E-03-0.313E-04
CGA:   6    -0.158322444095E+03   -0.64240E-04   -0.69134E-04 22672   0.142E-03-0.887E-04
CGA:   7    -0.158322457178E+03   -0.13083E-04   -0.13794E-04 22672   0.414E-04 0.158E-04
CGA:   8    -0.158322458877E+03   -0.16991E-05   -0.39441E-05 22672   0.182E-04 0.239E-04
  24 F= -.15832246E+03 E0= -.15832246E+03  d E =-.110816E-03  mag=    10.0000
       N       E                     dE             d eps       ncg     rms          ort
SDA:   1    -0.158314510455E+03    0.79467E-02    0.00000E+00 22672   0.200E-01 0.000E+00
CGA:   2    -0.158320971914E+03   -0.64615E-02   -0.63604E-02 22672   0.756E-02 0.674E-03
CGA:   3    -0.158322182509E+03   -0.12106E-02   -0.12223E-02 22672   0.150E-02 0.534E-03
CGA:   4    -0.158322475768E+03   -0.29326E-03   -0.29279E-03 22672   0.390E-03 0.853E-04
CGA:   5    -0.158322541953E+03   -0.66185E-04   -0.66798E-04 22672   0.934E-04 0.404E-04
CGA:   6    -0.158322554147E+03   -0.12194E-04   -0.13812E-04 22672   0.235E-04 0.381E-04
CGA:   7    -0.158322558456E+03   -0.43082E-05   -0.46961E-05 22672   0.987E-05 0.120E-04
  25 F= -.15832256E+03 E0= -.15832256E+03  d E =-.210394E-03  mag=    10.0000
       N       E                     dE             d eps       ncg     rms          ort
SDA:   1    -0.158322098416E+03    0.45573E-03    0.00000E+00 22672   0.129E-02 0.000E+00
CGA:   2    -0.158322484581E+03   -0.38616E-03   -0.36777E-03 22672   0.432E-03 0.164E-03
CGA:   3    -0.158322549741E+03   -0.65160E-04   -0.69048E-04 22672   0.103E-03 0.106E-03
CGA:   4    -0.158322568731E+03   -0.18990E-04   -0.19766E-04 22672   0.294E-04 0.342E-04
CGA:   5    -0.158322573805E+03   -0.50745E-05   -0.55426E-05 22672   0.758E-05 0.139E-04
CGA:   6    -0.158322573780E+03    0.24857E-07   -0.79066E-06 22672   0.417E-05 0.793E-05
  26 F= -.15832257E+03 E0= -.15832257E+03  d E =-.225719E-03  mag=    10.0000
       N       E                     dE             d eps       ncg     rms          ort
SDA:   1    -0.158322437166E+03    0.13664E-03    0.00000E+00 22672   0.282E-03 0.000E+00
CGA:   2    -0.158322533319E+03   -0.96153E-04   -0.11157E-03 22672   0.184E-03-0.664E-04
CGA:   3    -0.158322558874E+03   -0.25555E-04   -0.33337E-04 22672   0.143E-03-0.124E-03
CGA:   4    -0.158322570091E+03   -0.11217E-04   -0.13685E-04 22672   0.205E-04 0.300E-04
CGA:   5    -0.158322572251E+03   -0.21606E-05   -0.28166E-05 22672   0.888E-05 0.109E-04
CGA:   6    -0.158322568282E+03    0.39693E-05   -0.65549E-05 22672   0.704E-04-0.186E-04
  27 F= -.15832257E+03 E0= -.15832257E+03  d E =-.220221E-03  mag=    10.0000
       N       E                     dE             d eps       ncg     rms          ort
SDA:   1    -0.158322530403E+03    0.41848E-04    0.00000E+00 22672   0.150E-03 0.000E+00
CGA:   2    -0.158322566991E+03   -0.36588E-04   -0.34560E-04 22672   0.412E-04 0.544E-04
CGA:   3    -0.158322573804E+03   -0.68129E-05   -0.81934E-05 22672   0.128E-04 0.279E-04
CGA:   4    -0.158322575088E+03   -0.12846E-05   -0.17469E-05 22672   0.647E-05 0.823E-05
CGA:   5    -0.158322575176E+03   -0.87181E-07   -0.59489E-06 22672   0.433E-05 0.517E-05
CGA:   6    -0.158322575129E+03    0.46290E-07   -0.34368E-06 22672   0.316E-05 0.368E-05
  28 F= -.15832258E+03 E0= -.15832258E+03  d E =-.227068E-03  mag=    10.0000
       N       E                     dE             d eps       ncg     rms          ort
SDA:   1    -0.158322554706E+03    0.20470E-04    0.00000E+00 22672   0.343E-04 0.000E+00
CGA:   2    -0.158322565447E+03   -0.10741E-04   -0.13728E-04 22672   0.285E-04-0.133E-04
CGA:   3    -0.158322572882E+03   -0.74347E-05    0.11234E-04 22672   0.115E-04-0.940E-05
CGA:   4    -0.158322574452E+03   -0.15703E-05   -0.24661E-05 22672   0.116E-04-0.664E-05
CGA:   5    -0.158322575097E+03   -0.64466E-06   -0.10623E-05 22672   0.252E-05 0.413E-05
CGA:   6    -0.158322575054E+03    0.42764E-07   -0.22002E-06 22672   0.131E-05 0.214E-05
  29 F= -.15832258E+03 E0= -.15832258E+03  d E =-.226993E-03  mag=    10.0000
       N       E                     dE             d eps       ncg     rms          ort
SDA:   1    -0.158318727904E+03    0.38472E-02    0.00000E+00 22672   0.100E-01 0.000E+00
CGA:   2    -0.158321697635E+03   -0.29697E-02   -0.29908E-02 22672   0.534E-02-0.181E-03
CGA:   3    -0.158322509299E+03   -0.81166E-03   -0.80934E-03 22672   0.115E-02-0.876E-04
CGA:   4    -0.158322694566E+03   -0.18527E-03   -0.18544E-03 22672   0.288E-03 0.109E-04
CGA:   5    -0.158322748051E+03   -0.53485E-04   -0.53460E-04 22672   0.757E-04 0.533E-05
CGA:   6    -0.158322765048E+03   -0.16998E-04   -0.18242E-04 22672   0.356E-04-0.219E-04
CGA:   7    -0.158322770011E+03   -0.49626E-05   -0.50267E-05 22672   0.119E-04-0.399E-05
  30 F= -.15832277E+03 E0= -.15832277E+03  d E =-.194957E-03  mag=    10.0000
       N       E                     dE             d eps       ncg     rms          ort
SDA:   1    -0.158311607239E+03    0.11158E-01    0.00000E+00 22672   0.279E-01 0.000E+00
CGA:   2    -0.158319879080E+03   -0.82718E-02   -0.83027E-02 22672   0.145E-01-0.290E-03
CGA:   3    -0.158322087855E+03   -0.22088E-02   -0.22044E-02 22672   0.310E-02-0.140E-03
CGA:   4    -0.158322595844E+03   -0.50799E-03   -0.50828E-03 22672   0.837E-03 0.145E-04
CGA:   5    -0.158322748015E+03   -0.15217E-03   -0.15218E-03 22672   0.227E-03 0.357E-05
CGA:   6    -0.158322793896E+03   -0.45882E-04   -0.46582E-04 22672   0.776E-04-0.335E-04
CGA:   7    -0.158322807721E+03   -0.13825E-04   -0.14105E-04 22672   0.281E-04-0.966E-05
CGA:   8    -0.158322810722E+03   -0.30007E-05   -0.33822E-05 22672   0.746E-05 0.795E-05
  31 F= -.15832281E+03 E0= -.15832281E+03  d E =-.235668E-03  mag=    10.0000
       N       E                     dE             d eps       ncg     rms          ort
SDA:   1    -0.158319093959E+03    0.37138E-02    0.00000E+00 22672   0.890E-02 0.000E+00
CGA:   2    -0.158322346548E+03   -0.32526E-02   -0.32852E-02 22672   0.291E-02-0.180E-03
CGA:   3    -0.158322786099E+03   -0.43955E-03   -0.44183E-03 22672   0.641E-03 0.675E-04
CGA:   4    -0.158322893826E+03   -0.10773E-03   -0.10808E-03 22672   0.169E-03 0.160E-04
CGA:   5    -0.158322925024E+03   -0.31198E-04   -0.31184E-04 22672   0.479E-04-0.270E-05
CGA:   6    -0.158322933431E+03   -0.84073E-05   -0.83840E-05 22672   0.143E-04-0.328E-05
  32 F= -.15832293E+03 E0= -.15832293E+03  d E =-.122709E-03  mag=    10.0000
       N       E                     dE             d eps       ncg     rms          ort
SDA:   1    -0.158315537958E+03    0.73871E-02    0.00000E+00 22672   0.174E-01 0.000E+00
CGA:   2    -0.158321817948E+03   -0.62800E-02   -0.63145E-02 22672   0.650E-02-0.225E-03
CGA:   3    -0.158322679102E+03   -0.86115E-03   -0.86600E-03 22672   0.187E-02 0.667E-04
CGA:   4    -0.158322918304E+03   -0.23920E-03   -0.24124E-03 22672   0.499E-03 0.271E-04
CGA:   5    -0.158323012920E+03   -0.94616E-04   -0.94512E-04 22672   0.109E-03-0.933E-05
CGA:   6    -0.158323034245E+03   -0.21325E-04   -0.21326E-04 22672   0.252E-04-0.341E-06
CGA:   7    -0.158323039940E+03   -0.56951E-05   -0.91333E-05 22672   0.404E-04-0.207E-04
  33 F= -.15832304E+03 E0= -.15832304E+03  d E =-.229218E-03  mag=    10.0000
       N       E                     dE             d eps       ncg     rms          ort
SDA:   1    -0.158293136853E+03    0.29897E-01    0.00000E+00 22672   0.695E-01 0.000E+00
CGA:   2    -0.158318404099E+03   -0.25267E-01   -0.25324E-01 22672   0.224E-01-0.408E-03
CGA:   3    -0.158321920325E+03   -0.35162E-02   -0.35248E-02 22672   0.510E-02 0.158E-03
CGA:   4    -0.158322778604E+03   -0.85828E-03   -0.85895E-03 22672   0.135E-02 0.134E-04
CGA:   5    -0.158323017872E+03   -0.23927E-03   -0.23886E-03 22672   0.359E-03-0.152E-04
CGA:   6    -0.158323080059E+03   -0.62187E-04   -0.62020E-04 22672   0.936E-04-0.590E-05
CGA:   7    -0.158323102027E+03   -0.21968E-04   -0.23254E-04 22672   0.467E-04-0.256E-04
CGA:   8    -0.158323109790E+03   -0.77626E-05   -0.82214E-05 22672   0.199E-04-0.123E-04
  34 F= -.15832311E+03 E0= -.15832311E+03  d E =-.299068E-03  mag=    10.0000
       N       E                     dE             d eps       ncg     rms          ort
SDA:   1    -0.158318014727E+03    0.50873E-02    0.00000E+00 22672   0.125E-01 0.000E+00
CGA:   2    -0.158322411851E+03   -0.43971E-02   -0.44175E-02 22672   0.440E-02-0.144E-03
CGA:   3    -0.158323074144E+03   -0.66229E-03   -0.66462E-03 22672   0.984E-03 0.381E-04
CGA:   4    -0.158323249680E+03   -0.17554E-03   -0.17433E-03 22672   0.285E-03-0.387E-04
CGA:   5    -0.158323296454E+03   -0.46774E-04   -0.46222E-04 22672   0.885E-04-0.150E-04
CGA:   6    -0.158323308424E+03   -0.11970E-04   -0.12373E-04 22672   0.182E-04 0.714E-05
CGA:   7    -0.158323312691E+03   -0.42665E-05   -0.42851E-05 22672   0.713E-05-0.108E-05
  35 F= -.15832331E+03 E0= -.15832331E+03  d E =-.202901E-03  mag=    10.0000
       N       E                     dE             d eps       ncg     rms          ort
SDA:   1    -0.158314474717E+03    0.88337E-02    0.00000E+00 22672   0.209E-01 0.000E+00
CGA:   2    -0.158321810032E+03   -0.73353E-02   -0.73656E-02 22672   0.743E-02-0.215E-03
CGA:   3    -0.158322935692E+03   -0.11257E-02   -0.11289E-02 22672   0.167E-02 0.544E-04
CGA:   4    -0.158323233160E+03   -0.29747E-03   -0.29585E-03 22672   0.466E-03-0.529E-04
CGA:   5    -0.158323313206E+03   -0.80046E-04   -0.79385E-04 22672   0.129E-03-0.226E-04
CGA:   6    -0.158323331921E+03   -0.18715E-04   -0.19238E-04 22672   0.276E-04 0.110E-04
CGA:   7    -0.158323338935E+03   -0.70139E-05   -0.71768E-05 22672   0.130E-04-0.425E-05
  36 F= -.15832334E+03 E0= -.15832334E+03  d E =-.229145E-03  mag=    10.0000
       N       E                     dE             d eps       ncg     rms          ort
SDA:   1    -0.158323135283E+03    0.19664E-03    0.00000E+00 22672   0.564E-03 0.000E+00
CGA:   2    -0.158323318584E+03   -0.18330E-03   -0.17791E-03 22672   0.172E-03 0.477E-04
CGA:   3    -0.158323352093E+03   -0.33509E-04   -0.33270E-04 22672   0.678E-04-0.812E-05
CGA:   4    -0.158323360065E+03   -0.79719E-05   -0.85188E-05 22672   0.116E-04 0.720E-05
CGA:   5    -0.158323360934E+03   -0.86842E-06   -0.13118E-05 22672   0.318E-05 0.437E-05
CGA:   6    -0.158323361394E+03   -0.46011E-06   -0.56323E-06 22672   0.135E-05 0.148E-05
  37 F= -.15832336E+03 E0= -.15832336E+03  d E =-.251604E-03  mag=    10.0000
       N       E                     dE             d eps       ncg     rms          ort
SDA:   1    -0.158321841445E+03    0.15195E-02    0.00000E+00 22672   0.367E-02 0.000E+00
CGA:   2    -0.158323100355E+03   -0.12589E-02   -0.12415E-02 22672   0.120E-02 0.120E-03
CGA:   3    -0.158323300029E+03   -0.19967E-03   -0.19901E-03 22672   0.321E-03-0.162E-04
CGA:   4    -0.158323348606E+03   -0.48577E-04   -0.49586E-04 22672   0.693E-04 0.222E-04
CGA:   5    -0.158323359380E+03   -0.10774E-04   -0.11257E-04 22672   0.185E-04 0.102E-04
CGA:   6    -0.158323364049E+03   -0.46695E-05   -0.47718E-05 22672   0.859E-05-0.364E-05
  38 F= -.15832336E+03 E0= -.15832336E+03  d E =-.254260E-03  mag=    10.0000
       N       E                     dE             d eps       ncg     rms          ort
SDA:   1    -0.158322917077E+03    0.44230E-03    0.00000E+00 22672   0.104E-02 0.000E+00
CGA:   2    -0.158323287042E+03   -0.36997E-03   -0.37960E-03 22672   0.402E-03-0.567E-04
CGA:   3    -0.158323345453E+03   -0.58411E-04   -0.58881E-04 22672   0.815E-04 0.965E-05
CGA:   4    -0.158323360121E+03   -0.14668E-04   -0.14344E-04 22672   0.333E-04-0.115E-04
CGA:   5    -0.158323365139E+03   -0.50175E-05   -0.48436E-05 22672   0.110E-04-0.587E-05
CGA:   6    -0.158323366125E+03   -0.98583E-06   -0.11324E-05 22672   0.257E-05 0.203E-05
  39 F= -.15832337E+03 E0= -.15832337E+03  d E =-.256335E-03  mag=    10.0000
       N       E                     dE             d eps       ncg     rms          ort
SDA:   1    -0.158323284926E+03    0.80213E-04    0.00000E+00 22672   0.181E-03 0.000E+00
CGA:   2    -0.158323349806E+03   -0.64880E-04   -0.71064E-04 22672   0.100E-03-0.308E-04
CGA:   3    -0.158323359143E+03   -0.93374E-05   -0.96495E-05 22672   0.262E-04 0.365E-05
CGA:   4    -0.158323363192E+03   -0.40482E-05   -0.40615E-05 22672   0.822E-05 0.272E-06
CGA:   5    -0.158323364896E+03   -0.17040E-05   -0.23830E-05 22672   0.904E-05-0.729E-05
CGA:   6    -0.158323365355E+03   -0.45991E-06   -0.80106E-06 22672   0.156E-05 0.310E-05
  40 F= -.15832337E+03 E0= -.15832337E+03  d E =-.255566E-03  mag=    10.0000
       N       E                     dE             d eps       ncg     rms          ort
SDA:   1    -0.158322420158E+03    0.94474E-03    0.00000E+00 22672   0.268E-02 0.000E+00
CGA:   2    -0.158323159541E+03   -0.73938E-03   -0.73332E-03 22672   0.133E-02 0.680E-04
CGA:   3    -0.158323386520E+03   -0.22698E-03   -0.22641E-03 22672   0.320E-03-0.230E-04
CGA:   4    -0.158323447038E+03   -0.60518E-04   -0.60707E-04 22672   0.127E-03-0.616E-04
CGA:   5    -0.158323466884E+03   -0.19846E-04   -0.19940E-04 22672   0.389E-04-0.230E-04
CGA:   6    -0.158323469637E+03   -0.27528E-05   -0.35169E-05 22672   0.986E-05 0.952E-05
  41 F= -.15832347E+03 E0= -.15832347E+03  d E =-.104282E-03  mag=    10.0000
       N       E                     dE             d eps       ncg     rms          ort
SDA:   1    -0.158314154638E+03    0.93122E-02    0.00000E+00 22672   0.239E-01 0.000E+00
CGA:   2    -0.158320793653E+03   -0.66390E-02   -0.66124E-02 22672   0.121E-01 0.262E-03
CGA:   3    -0.158322781197E+03   -0.19875E-02   -0.19863E-02 22672   0.280E-02-0.524E-04
CGA:   4    -0.158323273964E+03   -0.49277E-03   -0.49133E-03 22672   0.834E-03-0.177E-03
CGA:   5    -0.158323426097E+03   -0.15213E-03   -0.15301E-03 22672   0.241E-03-0.756E-04
CGA:   6    -0.158323457065E+03   -0.30968E-04   -0.32064E-04 22672   0.516E-04 0.285E-04
CGA:   7    -0.158323463482E+03   -0.64162E-05   -0.75817E-05 22672   0.176E-04 0.226E-04
  42 F= -.15832346E+03 E0= -.15832346E+03  d E =-.981261E-04  mag=    10.0000
       N       E                     dE             d eps       ncg     rms          ort
SDA:   1    -0.158321221287E+03    0.22358E-02    0.00000E+00 22672   0.572E-02 0.000E+00
CGA:   2    -0.158322924815E+03   -0.17035E-02   -0.16902E-02 22672   0.256E-02 0.109E-03
CGA:   3    -0.158323332255E+03   -0.40744E-03   -0.40922E-03 22672   0.547E-03 0.631E-04
CGA:   4    -0.158323450941E+03   -0.11869E-03   -0.12406E-03 22672   0.298E-03-0.140E-03
CGA:   5    -0.158323485547E+03   -0.34606E-04   -0.33375E-04 22672   0.798E-04-0.358E-04
CGA:   6    -0.158323490281E+03   -0.47340E-05   -0.69837E-05 22672   0.260E-04 0.269E-04
  43 F= -.15832349E+03 E0= -.15832349E+03  d E =-.267995E-04  mag=    10.0000
       N       E                     dE             d eps       ncg     rms          ort
SDA:   1    -0.158302625730E+03    0.20860E-01    0.00000E+00 22672   0.517E-01 0.000E+00
CGA:   2    -0.158318047193E+03   -0.15421E-01   -0.15360E-01 22672   0.236E-01 0.448E-03
CGA:   3    -0.158321824621E+03   -0.37774E-02   -0.37819E-02 22672   0.514E-02 0.197E-03
CGA:   4    -0.158322812174E+03   -0.98755E-03   -0.99241E-03 22672   0.165E-02-0.390E-03
CGA:   5    -0.158323075714E+03   -0.26354E-03   -0.26272E-03 22672   0.426E-03-0.111E-03
CGA:   6    -0.158323129548E+03   -0.53833E-04   -0.56960E-04 22672   0.920E-04 0.875E-04
CGA:   7    -0.158323143323E+03   -0.13775E-04   -0.15257E-04 22672   0.335E-04 0.373E-04
CGA:   8    -0.158323154537E+03   -0.11214E-04   -0.20333E-04 22672   0.647E-04-0.356E-04
CGA:   9    -0.158323164643E+03   -0.10106E-04   -0.23382E-04 22672   0.133E-03-0.767E-04
CGA:  10    -0.158323178595E+03   -0.13951E-04   -0.15154E-04 22672   0.455E-05 0.145E-04
CGA:  11    -0.158323178570E+03    0.24876E-07   -0.35391E-06 22672   0.187E-05 0.309E-05
  44 F= -.15832318E+03 E0= -.15832318E+03  d E =0.284912E-03  mag=    10.0000
       N       E                     dE             d eps       ncg     rms          ort
SDA:   1    -0.158317725420E+03    0.54532E-02    0.00000E+00 22672   0.142E-01 0.000E+00
CGA:   2    -0.158322069497E+03   -0.43441E-02   -0.43519E-02 22672   0.663E-02-0.746E-04
CGA:   3    -0.158323128549E+03   -0.10591E-02   -0.10570E-02 22672   0.139E-02-0.810E-04
CGA:   4    -0.158323337196E+03   -0.20865E-03   -0.21360E-03 22672   0.323E-03 0.161E-03
CGA:   5    -0.158323390894E+03   -0.53698E-04   -0.55671E-04 22672   0.775E-04 0.660E-04
CGA:   6    -0.158323413255E+03   -0.22362E-04   -0.36237E-04 22672   0.112E-03-0.676E-04
CGA:   7    -0.158323422991E+03   -0.97359E-05   -0.12117E-04 22672   0.155E-04 0.282E-04
  45 F= -.15832342E+03 E0= -.15832342E+03  d E =0.404903E-04  mag=    10.0000
       N       E                     dE             d eps       ncg     rms          ort
SDA:   1    -0.158322938085E+03    0.47517E-03    0.00000E+00 22672   0.134E-02 0.000E+00
CGA:   2    -0.158323351189E+03   -0.41310E-03   -0.41793E-03 22672   0.588E-03-0.385E-04
CGA:   3    -0.158323440839E+03   -0.89650E-04   -0.89161E-04 22672   0.144E-03-0.150E-04
CGA:   4    -0.158323454854E+03   -0.14015E-04   -0.16742E-04 22672   0.378E-04 0.397E-04
CGA:   5    -0.158323457735E+03   -0.28805E-05   -0.47367E-05 22672   0.123E-04 0.215E-04
CGA:   6    -0.158323460716E+03   -0.29815E-05   -0.57879E-05 22672   0.308E-04-0.961E-05
  46 F= -.15832346E+03 E0= -.15832346E+03  d E =0.276537E-05  mag=    10.0000
       N       E                     dE             d eps       ncg     rms          ort
SDA:   1    -0.158321327540E+03    0.21302E-02    0.00000E+00 22672   0.573E-02 0.000E+00
CGA:   2    -0.158322905182E+03   -0.15776E-02   -0.15629E-02 22672   0.269E-02 0.173E-03
CGA:   3    -0.158323342443E+03   -0.43726E-03   -0.44201E-03 22672   0.569E-03 0.135E-03
CGA:   4    -0.158323455569E+03   -0.11313E-03   -0.11302E-03 22672   0.197E-03-0.334E-04
CGA:   5    -0.158323489039E+03   -0.33470E-04   -0.33310E-04 22672   0.524E-04-0.128E-04
CGA:   6    -0.158323493076E+03   -0.40364E-05   -0.54847E-05 22672   0.134E-04 0.182E-04
  47 F= -.15832349E+03 E0= -.15832349E+03  d E =-.323596E-04  mag=    10.0000
       N       E                     dE             d eps       ncg     rms          ort
SDA:   1    -0.158314903642E+03    0.85854E-02    0.00000E+00 22672   0.221E-01 0.000E+00
CGA:   2    -0.158321044238E+03   -0.61406E-02   -0.61034E-02 22672   0.105E-01 0.380E-03
CGA:   3    -0.158322762586E+03   -0.17183E-02   -0.17255E-02 22672   0.232E-02 0.270E-03
CGA:   4    -0.158323202604E+03   -0.44002E-03   -0.43996E-03 22672   0.714E-03-0.817E-04
CGA:   5    -0.158323327498E+03   -0.12489E-03   -0.12476E-03 22672   0.181E-03-0.305E-04
CGA:   6    -0.158323349359E+03   -0.21861E-04   -0.23979E-04 22672   0.401E-04 0.449E-04
CGA:   7    -0.158323355412E+03   -0.60525E-05   -0.68748E-05 22672   0.152E-04 0.180E-04
CGA:   8    -0.158323354470E+03    0.94202E-06   -0.13455E-04 22672   0.725E-04-0.334E-04
CGA:   9    -0.158323370249E+03   -0.15780E-04   -0.16287E-04 22672   0.283E-04-0.228E-04
CGA:  10    -0.158323374447E+03   -0.41977E-05   -0.42857E-05 22672   0.569E-05-0.500E-05
  48 F= -.15832337E+03 E0= -.15832337E+03  d E =0.862690E-04  mag=    10.0000
       N       E                     dE             d eps       ncg     rms          ort
SDA:   1    -0.158320824211E+03    0.25460E-02    0.00000E+00 22672   0.670E-02 0.000E+00
CGA:   2    -0.158322747064E+03   -0.19229E-02   -0.19351E-02 22672   0.350E-02-0.142E-03
CGA:   3    -0.158323320774E+03   -0.57371E-03   -0.56866E-03 22672   0.760E-03-0.138E-03
CGA:   4    -0.158323434032E+03   -0.11326E-03   -0.11514E-03 22672   0.187E-03 0.423E-04
CGA:   5    -0.158323466135E+03   -0.32103E-04   -0.32886E-04 22672   0.434E-04 0.235E-04
CGA:   6    -0.158323473827E+03   -0.76918E-05   -0.21563E-04 22672   0.117E-03-0.570E-04
CGA:   7    -0.158323483384E+03   -0.95573E-05   -0.11988E-04 22672   0.139E-04 0.227E-04
  49 F= -.15832348E+03 E0= -.15832348E+03  d E =-.226682E-04  mag=    10.0000
       N       E                     dE             d eps       ncg     rms          ort
SDA:   1    -0.158323327860E+03    0.14597E-03    0.00000E+00 22672   0.417E-03 0.000E+00
CGA:   2    -0.158323451997E+03   -0.12414E-03   -0.12782E-03 22672   0.222E-03-0.345E-04
CGA:   3    -0.158323483861E+03   -0.31864E-04   -0.30486E-04 22672   0.677E-04-0.256E-04
CGA:   4    -0.158323490828E+03   -0.69667E-05   -0.74249E-05 22672   0.194E-04 0.594E-05
CGA:   5    -0.158323492437E+03   -0.16091E-05   -0.22835E-05 22672   0.533E-05 0.758E-05
CGA:   6    -0.158323493425E+03   -0.98868E-06   -0.10314E-05 22672   0.204E-05 0.793E-06
  50 F= -.15832349E+03 E0= -.15832349E+03  d E =-.327092E-04  mag=    10.0000
       N       E                     dE             d eps       ncg     rms          ort
SDA:   1    -0.158322146946E+03    0.13455E-02    0.00000E+00 22672   0.392E-02 0.000E+00
CGA:   2    -0.158323177862E+03   -0.10309E-02   -0.10158E-02 22672   0.191E-02 0.214E-03
CGA:   3    -0.158323477986E+03   -0.30012E-03   -0.30894E-03 22672   0.379E-03 0.216E-03
CGA:   4    -0.158323538270E+03   -0.60284E-04   -0.63565E-04 22672   0.951E-04 0.798E-04
CGA:   5    -0.158323555285E+03   -0.17015E-04   -0.18103E-04 22672   0.272E-04 0.337E-04
CGA:   6    -0.158323558742E+03   -0.34570E-05   -0.45655E-05 22672   0.935E-05 0.173E-04
  51 F= -.15832356E+03 E0= -.15832356E+03  d E =-.653164E-04  mag=    10.0000
