       N       E                     dE             d eps       ncg     rms          rms(c)
DAV:   1     0.853194188380E+03    0.85319E+03   -0.37923E+04135592   0.182E+03
DAV:   2    -0.126127097233E+02   -0.86581E+03   -0.82868E+03156822   0.539E+02
DAV:   3    -0.102358868878E+03   -0.89746E+02   -0.88960E+02156311   0.188E+02
DAV:   4    -0.104412736988E+03   -0.20539E+01   -0.20417E+01157077   0.293E+01
DAV:   5    -0.104469513738E+03   -0.56777E-01   -0.56765E-01182388   0.480E+00    0.340E+01
DAV:   6    -0.800248554421E+02    0.24445E+02   -0.53123E+01177575   0.607E+01    0.236E+01
DAV:   7    -0.809637362673E+02   -0.93888E+00   -0.55508E+00158148   0.146E+01    0.155E+01
DAV:   8    -0.814315219072E+02   -0.46779E+00   -0.71468E-01158995   0.750E+00    0.928E+00
DAV:   9    -0.814668749094E+02   -0.35353E-01   -0.11954E-01155185   0.292E+00    0.277E+00
DAV:  10    -0.814590047290E+02    0.78702E-02   -0.23060E-02175406   0.130E+00    0.668E-01
DAV:  11    -0.814679659566E+02   -0.89612E-02   -0.24704E-03174948   0.383E-01    0.379E-01
DAV:  12    -0.814664605529E+02    0.15054E-02   -0.10774E-03182405   0.248E-01    0.157E-01
DAV:  13    -0.814678924780E+02   -0.14319E-02   -0.19429E-04175625   0.101E-01    0.891E-02
DAV:  14    -0.814676001153E+02    0.29236E-03   -0.33131E-05137014   0.355E-02    0.361E-02
DAV:  15    -0.814675735505E+02    0.26565E-04   -0.90381E-06 77424   0.217E-02    0.212E-02
DAV:  16    -0.814675573580E+02    0.16192E-04   -0.46740E-06 72897   0.165E-02    0.121E-02
DAV:  17    -0.814676615926E+02   -0.10423E-03   -0.14491E-06 67704   0.966E-03    0.758E-03
DAV:  18    -0.814675132325E+02    0.14836E-03   -0.13813E-06 67704   0.950E-03    0.530E-03
DAV:  19    -0.814675833711E+02   -0.70139E-04   -0.11961E-06 67732   0.695E-03    0.223E-03
DAV:  20    -0.814675942374E+02   -0.10866E-04   -0.35991E-07 67704   0.340E-03    0.998E-04
DAV:  21    -0.814676029660E+02   -0.87286E-05   -0.10735E-07 67704   0.202E-03
   1 F= -.81467603E+02 E0= -.81467603E+02  d E =-.814676E+02  mag=     0.0000
       N       E                     dE             d eps       ncg     rms          rms(c)
DAV:   1    -0.822524658149E+02   -0.78487E+00   -0.28578E+01135408   0.457E+01    0.824E+00
DAV:   2    -0.815615145315E+02    0.69095E+00   -0.24847E+00135408   0.105E+01    0.412E+00
DAV:   3    -0.814880221587E+02    0.73492E-01   -0.34893E-01156043   0.534E+00    0.182E+00
DAV:   4    -0.814805055866E+02    0.75166E-02   -0.38340E-02156265   0.102E+00    0.138E+00
DAV:   5    -0.814785587011E+02    0.19469E-02   -0.12299E-02197241   0.534E-01    0.697E-01
DAV:   6    -0.814751665846E+02    0.33921E-02   -0.49975E-03183401   0.407E-01    0.336E-01
DAV:   7    -0.814767371415E+02   -0.15706E-02   -0.33874E-04183313   0.127E-01    0.125E-01
DAV:   8    -0.814763722682E+02    0.36487E-03   -0.45580E-05156632   0.477E-02    0.436E-02
DAV:   9    -0.814764661162E+02   -0.93848E-04   -0.16295E-05124152   0.262E-02    0.219E-02
DAV:  10    -0.814764161626E+02    0.49954E-04   -0.35938E-06 85113   0.151E-02    0.100E-02
DAV:  11    -0.814764001198E+02    0.16043E-04   -0.15053E-06 67704   0.885E-03    0.442E-03
DAV:  12    -0.814764152122E+02   -0.15092E-04   -0.79912E-07 67704   0.560E-03    0.295E-03
DAV:  13    -0.814764058233E+02    0.93888E-05   -0.38161E-07 67704   0.376E-03
   2 F= -.81476406E+02 E0= -.81476406E+02  d E =-.880286E-02  mag=    -0.0000
       N       E                     dE             d eps       ncg     rms          rms(c)
DAV:   1    -0.816706264608E+02   -0.19421E+00   -0.56228E+00135408   0.201E+01    0.368E+00
DAV:   2    -0.815161938907E+02    0.15443E+00   -0.48632E-01135408   0.458E+00    0.174E+00
DAV:   3    -0.814974071764E+02    0.18787E-01   -0.77491E-02154797   0.246E+00    0.749E-01
DAV:   4    -0.814939499741E+02    0.34572E-02   -0.57814E-03175281   0.426E-01    0.502E-01
DAV:   5    -0.814939761440E+02   -0.26170E-04   -0.19726E-03197926   0.222E-01    0.308E-01
DAV:   6    -0.814938198485E+02    0.15630E-03   -0.84590E-04185254   0.173E-01    0.103E-01
DAV:   7    -0.814932809704E+02    0.53888E-03   -0.21972E-05115649   0.390E-02    0.523E-02
DAV:   8    -0.814933882777E+02   -0.10731E-03   -0.68223E-06 94025   0.205E-02    0.187E-02
DAV:   9    -0.814933345666E+02    0.53711E-04   -0.59602E-06 85847   0.140E-02    0.715E-03
DAV:  10    -0.814933582042E+02   -0.23638E-04   -0.90966E-07 67704   0.752E-03    0.287E-03
DAV:  11    -0.814933629393E+02   -0.47352E-05   -0.28787E-07 67704   0.351E-03
   3 F= -.81493363E+02 E0= -.81493363E+02  d E =-.257600E-01  mag=    -0.0000
       N       E                     dE             d eps       ncg     rms          rms(c)
DAV:   1    -0.814934099715E+02   -0.51767E-04   -0.17005E-03135408   0.351E-01    0.639E-02
DAV:   2    -0.814934212170E+02   -0.11246E-04   -0.14691E-04135408   0.798E-02    0.308E-02
DAV:   3    -0.814933861219E+02    0.35095E-04   -0.20392E-05 98134   0.424E-02    0.113E-02
DAV:   4    -0.814933547446E+02    0.31377E-04   -0.32029E-06 67704   0.120E-02    0.743E-03
DAV:   5    -0.814933734127E+02   -0.18668E-04   -0.84355E-07 67704   0.679E-03    0.427E-03
DAV:   6    -0.814933659438E+02    0.74689E-05   -0.37985E-07 67704   0.521E-03
   4 F= -.81493366E+02 E0= -.81493366E+02  d E =-.257630E-01  mag=    -0.0000
       N       E                     dE             d eps       ncg     rms          rms(c)
DAV:   1    -0.814942646529E+02   -0.89124E-03   -0.35641E-01135408   0.412E+00    0.414E-01
DAV:   2    -0.814949498137E+02   -0.68516E-03   -0.10948E-02159712   0.724E-01    0.232E-01
DAV:   3    -0.814945897588E+02    0.36005E-03   -0.43399E-04163440   0.171E-01    0.134E-01
DAV:   4    -0.814945177058E+02    0.72053E-04   -0.59899E-05167595   0.476E-02    0.946E-02
DAV:   5    -0.814944969653E+02    0.20740E-04   -0.28811E-05132344   0.354E-02    0.899E-02
DAV:   6    -0.814944964333E+02    0.53204E-06   -0.27167E-05132448   0.337E-02
   5 F= -.81494496E+02 E0= -.81494496E+02  d E =-.113049E-02  mag=    -0.0000
       N       E                     dE             d eps       ncg     rms          rms(c)
DAV:   1    -0.814967515622E+02   -0.22546E-02   -0.32042E+00135408   0.123E+01    0.123E+00
DAV:   2    -0.814994946930E+02   -0.27431E-02   -0.97831E-02159712   0.216E+00    0.685E-01
DAV:   3    -0.814973354160E+02    0.21593E-02   -0.38946E-03163816   0.523E-01    0.393E-01
DAV:   4    -0.814970625294E+02    0.27289E-03   -0.56387E-04199902   0.146E-01    0.278E-01
DAV:   5    -0.814970150327E+02    0.47497E-04   -0.28951E-04193993   0.104E-01    0.269E-01
DAV:   6    -0.814969926107E+02    0.22422E-04   -0.26079E-04199960   0.880E-02    0.168E-01
DAV:   7    -0.814968011437E+02    0.19147E-03   -0.86286E-05172856   0.716E-02    0.399E-02
DAV:   8    -0.814968539640E+02   -0.52820E-04   -0.12327E-05104789   0.252E-02    0.238E-02
DAV:   9    -0.814968292489E+02    0.24715E-04   -0.54531E-06 96022   0.147E-02    0.112E-02
DAV:  10    -0.814968310648E+02   -0.18159E-05   -0.28325E-06 77679   0.111E-02
   6 F= -.81496831E+02 E0= -.81496831E+02  d E =-.346512E-02  mag=     0.0000
       N       E                     dE             d eps       ncg     rms          rms(c)
DAV:   1    -0.815051119633E+02   -0.82827E-02   -0.12861E+01135408   0.247E+01    0.243E+00
DAV:   2    -0.815063343490E+02   -0.12224E-02   -0.39590E-01155204   0.434E+00    0.136E+00
DAV:   3    -0.814990915206E+02    0.72428E-02   -0.15435E-02163168   0.107E+00    0.750E-01
DAV:   4    -0.814983656813E+02    0.72584E-03   -0.23765E-03198352   0.304E-01    0.537E-01
DAV:   5    -0.814983606607E+02    0.50206E-05   -0.11175E-03200621   0.207E-01    0.507E-01
DAV:   6    -0.814982425179E+02    0.11814E-03   -0.10491E-03203600   0.172E-01    0.340E-01
DAV:   7    -0.814977882054E+02    0.45431E-03   -0.34939E-04198912   0.142E-01    0.851E-02
DAV:   8    -0.814978787171E+02   -0.90512E-04   -0.62104E-05156850   0.514E-02    0.434E-02
DAV:   9    -0.814978382190E+02    0.40498E-04   -0.11970E-05104160   0.276E-02    0.217E-02
DAV:  10    -0.814978745844E+02   -0.36365E-04   -0.11742E-05112256   0.264E-02    0.107E-02
DAV:  11    -0.814978579630E+02    0.16621E-04   -0.51239E-06 68173   0.172E-02    0.800E-03
DAV:  12    -0.814978599331E+02   -0.19702E-05   -0.16741E-06 67704   0.975E-03
   7 F= -.81497860E+02 E0= -.81497860E+02  d E =-.449399E-02  mag=     0.0000
       N       E                     dE             d eps       ncg     rms          rms(c)
DAV:   1    -0.814963560990E+02    0.15019E-02   -0.11773E+00135408   0.750E+00    0.782E-01
DAV:   2    -0.814982175890E+02   -0.18615E-02   -0.36616E-02159712   0.134E+00    0.446E-01
DAV:   3    -0.814978503542E+02    0.36723E-03   -0.13872E-03160768   0.294E-01    0.254E-01
DAV:   4    -0.814979021076E+02   -0.51753E-04   -0.21612E-04201352   0.858E-02    0.184E-01
DAV:   5    -0.814979406510E+02   -0.38543E-04   -0.81273E-05174100   0.544E-02    0.162E-01
DAV:   6    -0.814979391338E+02    0.15172E-05   -0.76262E-05168568   0.514E-02
   8 F= -.81497939E+02 E0= -.81497939E+02  d E =-.457319E-02  mag=     0.0000
       N       E                     dE             d eps       ncg     rms          rms(c)
DAV:   1    -0.814976200620E+02    0.32059E-03   -0.71167E-01135408   0.646E+00    0.443E-01
DAV:   2    -0.814993222854E+02   -0.17022E-02   -0.24610E-02149324   0.115E+00    0.242E-01
DAV:   3    -0.814990301651E+02    0.29212E-03   -0.76155E-04163524   0.242E-01    0.147E-01
DAV:   4    -0.814989186387E+02    0.11153E-03   -0.12237E-04186625   0.841E-02    0.112E-01
DAV:   5    -0.814989790589E+02   -0.60420E-04   -0.48953E-05173462   0.533E-02    0.989E-02
DAV:   6    -0.814989807476E+02   -0.16887E-05   -0.40863E-05162792   0.512E-02
   9 F= -.81498981E+02 E0= -.81498981E+02  d E =-.104161E-02  mag=    -0.0000
