       N       E                     dE             d eps       ncg     rms          rms(c)
DAV:   1     0.873638391593E+03    0.87364E+03   -0.47680E+04190960   0.182E+03
DAV:   2    -0.141331982257E+02   -0.88777E+03   -0.85806E+03187656   0.553E+02
DAV:   3    -0.770589659903E+02   -0.62926E+02   -0.62078E+02191472   0.164E+02
DAV:   4    -0.781630296447E+02   -0.11041E+01   -0.11026E+01191472   0.241E+01
DAV:   5    -0.781875737575E+02   -0.24544E-01   -0.24542E-01217024   0.346E+00    0.911E+00
DAV:   6    -0.614318916581E+02    0.16756E+02   -0.43314E+01219448   0.642E+01    0.317E+01
DAV:   7    -0.578103578124E+02    0.36215E+01   -0.24855E+01205104   0.489E+01    0.676E+00
DAV:   8    -0.581299295922E+02   -0.31957E+00   -0.69126E-01207040   0.878E+00    0.409E+00
DAV:   9    -0.581074220751E+02    0.22508E-01   -0.66309E-02230640   0.236E+00    0.349E+00
DAV:  10    -0.580918691295E+02    0.15553E-01   -0.24074E-02197128   0.140E+00    0.273E+00
DAV:  11    -0.580676863039E+02    0.24183E-01   -0.40699E-02230496   0.223E+00    0.157E+00
DAV:  12    -0.580635369585E+02    0.41493E-02   -0.11091E-02235136   0.756E-01    0.112E+00
DAV:  13    -0.580640294667E+02   -0.49251E-03   -0.17080E-03206328   0.351E-01    0.103E+00
DAV:  14    -0.580630646638E+02    0.96480E-03   -0.17743E-03226240   0.340E-01    0.878E-01
DAV:  15    -0.580609924499E+02    0.20722E-02   -0.69595E-03218000   0.749E-01    0.558E-01
DAV:  16    -0.580605908810E+02    0.40157E-03   -0.31818E-03235064   0.411E-01    0.328E-01
DAV:  17    -0.580607102685E+02   -0.11939E-03   -0.12285E-03219328   0.235E-01    0.226E-01
DAV:  18    -0.580607367637E+02   -0.26495E-04   -0.11923E-03225104   0.258E-01    0.105E-01
DAV:  19    -0.580608597323E+02   -0.12297E-03   -0.60002E-04225280   0.157E-01    0.348E-02
DAV:  20    -0.580609466317E+02   -0.86899E-04   -0.17286E-04148944   0.811E-02    0.324E-02
DAV:  21    -0.580609866340E+02   -0.40002E-04   -0.53924E-05101568   0.492E-02    0.394E-02
DAV:  22    -0.580610084272E+02   -0.21793E-04   -0.26787E-05 89808   0.340E-02    0.364E-02
DAV:  23    -0.580610203712E+02   -0.11944E-04   -0.11705E-05 88272   0.203E-02    0.361E-02
DAV:  24    -0.580610186073E+02    0.17639E-05   -0.25648E-06 87344   0.164E-02
   1 F= -.58061019E+02 E0= -.58061019E+02  d E =-.580610E+02  mag=     2.0001
       N       E                     dE             d eps       ncg     rms          rms(c)
DAV:   1    -0.580797484904E+02   -0.18728E-01   -0.39785E-01189096   0.680E+00    0.124E+00
DAV:   2    -0.580705345296E+02    0.92140E-02   -0.10867E-01181440   0.590E+00    0.139E+00
DAV:   3    -0.580647325667E+02    0.58020E-02   -0.94183E-02190248   0.458E+00    0.996E-01
DAV:   4    -0.580616598266E+02    0.30727E-02   -0.19517E-02213368   0.209E+00    0.326E-01
DAV:   5    -0.580616519058E+02    0.79207E-05   -0.16668E-03217496   0.459E-01    0.175E-01
DAV:   6    -0.580615596979E+02    0.92208E-04   -0.54974E-04211544   0.300E-01    0.766E-02
DAV:   7    -0.580615280394E+02    0.31659E-04   -0.87744E-05194632   0.145E-01    0.306E-02
DAV:   8    -0.580615203794E+02    0.76600E-05   -0.29137E-05113752   0.656E-02
   2 F= -.58061520E+02 E0= -.58061520E+02  d E =-.501772E-03  mag=     2.0000
       N       E                     dE             d eps       ncg     rms          rms(c)
DAV:   1    -0.580620845772E+02   -0.55654E-03   -0.11071E-02188008   0.113E+00    0.209E-01
DAV:   2    -0.580618276284E+02    0.25695E-03   -0.30871E-03181840   0.102E+00    0.237E-01
DAV:   3    -0.580616192572E+02    0.20837E-03   -0.26767E-03191424   0.763E-01    0.166E-01
DAV:   4    -0.580615751215E+02    0.44136E-04   -0.59296E-04211944   0.343E-01    0.563E-02
DAV:   5    -0.580615646471E+02    0.10474E-04   -0.40822E-05143928   0.791E-02    0.304E-02
DAV:   6    -0.580615601912E+02    0.44558E-05   -0.15317E-05 85584   0.518E-02
   3 F= -.58061560E+02 E0= -.58061560E+02  d E =-.541584E-03  mag=     2.0000
