       N       E                     dE             d eps       ncg     rms          rms(c)
DAV:   1     0.705591642121E+03    0.70559E+03   -0.31278E+04100551   0.186E+03
DAV:   2     0.333812716695E+01   -0.70225E+03   -0.65492E+03107427   0.547E+02
DAV:   3    -0.712152424145E+02   -0.74553E+02   -0.73704E+02110406   0.189E+02
DAV:   4    -0.728561964005E+02   -0.16410E+01   -0.16355E+01113940   0.300E+01
DAV:   5    -0.728849710061E+02   -0.28775E-01   -0.28770E-01107829   0.437E+00    0.193E+01
DAV:   6    -0.572286657491E+02    0.15656E+02   -0.19400E+01122217   0.394E+01    0.185E+01
DAV:   7    -0.578715925543E+02   -0.64293E+00   -0.38646E+00112272   0.130E+01    0.125E+01
DAV:   8    -0.578417336498E+02    0.29859E-01   -0.79199E-01115476   0.793E+00    0.651E+00
DAV:   9    -0.582151925233E+02   -0.37346E+00   -0.12960E-01114771   0.456E+00    0.102E+00
DAV:  10    -0.583012575891E+02   -0.86065E-01   -0.33936E-02108873   0.281E+00    0.258E-01
DAV:  11    -0.583048966229E+02   -0.36390E-02   -0.13991E-02112296   0.708E-01    0.137E-01
DAV:  12    -0.583049773199E+02   -0.80697E-04   -0.63063E-04107991   0.213E-01    0.650E-02
DAV:  13    -0.583051736198E+02   -0.19630E-03   -0.35059E-04112596   0.168E-01    0.303E-02
DAV:  14    -0.583051962522E+02   -0.22632E-04   -0.36666E-05 94806   0.530E-02    0.239E-02
DAV:  15    -0.583051869204E+02    0.93318E-05   -0.19765E-05 68340   0.322E-02
   1 F= -.58305187E+02 E0= -.58305187E+02  d E =-.583052E+02  mag=    -0.0000
       N       E                     dE             d eps       ncg     rms          rms(c)
DAV:   1    -0.583543496986E+02   -0.49153E-01   -0.11759E+00108018   0.105E+01    0.192E+00
DAV:   2    -0.583087637092E+02    0.45586E-01   -0.13879E-01108618   0.281E+00    0.107E+00
DAV:   3    -0.583072357105E+02    0.15280E-02   -0.14868E-02112974   0.128E+00    0.456E-01
DAV:   4    -0.583065319397E+02    0.70377E-03   -0.11133E-03114639   0.314E-01    0.315E-01
DAV:   5    -0.583063080040E+02    0.22394E-03   -0.20596E-04108516   0.123E-01    0.949E-02
DAV:   6    -0.583063273851E+02   -0.19381E-04   -0.22623E-05 97371   0.431E-02    0.123E-02
DAV:   7    -0.583063291165E+02   -0.17314E-05   -0.30255E-06 55554   0.162E-02
   2 F= -.58306329E+02 E0= -.58306329E+02  d E =-.114220E-02  mag=     0.0000
