       N       E                     dE             d eps       ncg     rms          rms(c)
DAV:   1     0.174111133892E+04    0.17411E+04   -0.78436E+04128992   0.185E+03
DAV:   2     0.184111127684E+02   -0.17227E+04   -0.15975E+04132612   0.545E+02
DAV:   3    -0.185106798551E+03   -0.20352E+03   -0.19547E+03130916   0.199E+02
DAV:   4    -0.191670812588E+03   -0.65640E+01   -0.65359E+01129508   0.364E+01
DAV:   5    -0.191760976302E+03   -0.90164E-01   -0.90094E-01134024   0.456E+00    0.730E+00
DAV:   6    -0.154880006848E+03    0.36881E+02   -0.14824E+01127412   0.164E+01    0.929E+00
DAV:   7    -0.154759805628E+03    0.12020E+00   -0.28209E-01128420   0.333E+00    0.430E+00
DAV:   8    -0.154694578845E+03    0.65227E-01   -0.12235E-01127916   0.151E+00    0.218E+00
DAV:   9    -0.154685065222E+03    0.95136E-02   -0.47026E-03128348   0.304E-01    0.195E+00
DAV:  10    -0.154670780544E+03    0.14285E-01   -0.11856E-02127736   0.487E-01    0.141E+00
DAV:  11    -0.154663660526E+03    0.71200E-02   -0.61917E-03128112   0.347E-01    0.102E+00
DAV:  12    -0.154660559825E+03    0.31007E-02   -0.18125E-03127784   0.188E-01    0.798E-01
DAV:  13    -0.154659209162E+03    0.13507E-02   -0.57613E-04128024   0.106E-01    0.673E-01
DAV:  14    -0.154657006817E+03    0.22023E-02   -0.25657E-03127460   0.227E-01    0.393E-01
DAV:  15    -0.154655855077E+03    0.11517E-02   -0.24241E-03127696   0.218E-01    0.129E-01
DAV:  16    -0.154655663872E+03    0.19120E-03   -0.32440E-04128184   0.802E-02    0.383E-02
DAV:  17    -0.154655630671E+03    0.33201E-04   -0.52365E-06 69076   0.116E-02    0.285E-02
DAV:  18    -0.154655617734E+03    0.12937E-04   -0.31243E-06 67568   0.892E-03    0.222E-02
DAV:  19    -0.154655602829E+03    0.14905E-04   -0.57352E-06 66928   0.117E-02    0.517E-03
DAV:  20    -0.154655591096E+03    0.11732E-04   -0.10379E-06 66224   0.524E-03    0.354E-03
DAV:  21    -0.154655582958E+03    0.81386E-05   -0.43712E-07 65800   0.375E-03
   1 F= -.15465558E+03 E0= -.15465558E+03  d E =-.154656E+03  mag=    -0.0000
