       N       E                     dE             d eps       ncg     rms          rms(c)
DAV:   1     0.286244062939E+04    0.28624E+04   -0.12306E+05201496   0.219E+03
DAV:   2     0.162895623265E+03   -0.26995E+04   -0.25749E+04171924   0.676E+02
DAV:   3    -0.158337986960E+03   -0.32123E+03   -0.31202E+03186576   0.251E+02
DAV:   4    -0.173594497560E+03   -0.15257E+02   -0.14818E+02185792   0.507E+01
DAV:   5    -0.173888901694E+03   -0.29440E+00   -0.29387E+00188956   0.836E+00    0.116E+01
DAV:   6    -0.129960929202E+03    0.43928E+02   -0.55197E+01196068   0.436E+01    0.200E+01
DAV:   7    -0.126989462009E+03    0.29715E+01   -0.56715E+00203716   0.165E+01    0.768E+00
DAV:   8    -0.126639814617E+03    0.34965E+00   -0.72972E-01201416   0.460E+00    0.402E+00
DAV:   9    -0.126592285249E+03    0.47529E-01   -0.27995E-02183284   0.912E-01    0.336E+00
DAV:  10    -0.126509170312E+03    0.83115E-01   -0.93585E-02185300   0.175E+00    0.197E+00
DAV:  11    -0.126502372561E+03    0.67978E-02   -0.32979E-03195320   0.372E-01    0.175E+00
DAV:  12    -0.126504280418E+03   -0.19079E-02   -0.17867E-04177892   0.809E-02    0.179E+00
DAV:  13    -0.126488911120E+03    0.15369E-01   -0.97484E-03201384   0.601E-01    0.132E+00
DAV:  14    -0.126473181761E+03    0.15729E-01   -0.36472E-02189600   0.112E+00    0.446E-01
DAV:  15    -0.126472198809E+03    0.98295E-03   -0.75368E-03195528   0.522E-01    0.199E-01
DAV:  16    -0.126472362107E+03   -0.16330E-03   -0.21206E-04184296   0.892E-02    0.213E-01
DAV:  17    -0.126472180543E+03    0.18156E-03   -0.18766E-04165224   0.797E-02    0.254E-01
DAV:  18    -0.126472516322E+03   -0.33578E-03   -0.20725E-04179280   0.983E-02    0.181E-01
DAV:  19    -0.126472693889E+03   -0.17757E-03   -0.14250E-04179044   0.955E-02    0.135E-01
DAV:  20    -0.126472749853E+03   -0.55964E-04   -0.49855E-05122364   0.465E-02    0.113E-01
DAV:  21    -0.126472774932E+03   -0.25079E-04   -0.31846E-05136212   0.379E-02    0.892E-02
DAV:  22    -0.126472774419E+03    0.51294E-06   -0.10132E-05 91480   0.343E-02
   1 F= -.12647277E+03 E0= -.12646585E+03  d E =-.126473E+03  mag=    -0.4612
       N       E                     dE             d eps       ncg     rms          rms(c)
DAV:   1    -0.126660440490E+03   -0.18767E+00   -0.20947E+00196924   0.950E+00    0.446E+00
DAV:   2    -0.126585214401E+03    0.75226E-01   -0.21189E+00195752   0.964E+00    0.371E+00
DAV:   3    -0.126471977113E+03    0.11324E+00   -0.42205E-01200816   0.484E+00    0.519E-01
DAV:   4    -0.126472580502E+03   -0.60339E-03   -0.18776E-02180912   0.601E-01    0.349E-01
DAV:   5    -0.126471828430E+03    0.75207E-03   -0.28999E-03212092   0.700E-01    0.261E-01
DAV:   6    -0.126471555865E+03    0.27256E-03   -0.31229E-03211520   0.711E-01    0.181E-01
DAV:   7    -0.126471393114E+03    0.16275E-03   -0.67642E-04211172   0.342E-01    0.771E-02
DAV:   8    -0.126471343604E+03    0.49511E-04   -0.85359E-05193812   0.117E-01    0.444E-02
DAV:   9    -0.126471316079E+03    0.27524E-04   -0.11588E-04196696   0.715E-02    0.178E-02
DAV:  10    -0.126471314812E+03    0.12677E-05   -0.12708E-05 88400   0.410E-02
   2 F= -.12647131E+03 E0= -.12646442E+03  d E =0.145961E-02  mag=    -0.4507
