       N       E                     dE             d eps       ncg     rms          ort
DAV:   1     0.226901848818E+04    0.22690E+04   -0.76626E+04 20928   0.201E+03
DAV:   2     0.222788636271E+03   -0.20462E+04   -0.19144E+04 20928   0.583E+02
DAV:   3    -0.168664906931E+03   -0.39145E+03   -0.36622E+03 20928   0.248E+02
DAV:   4    -0.196816446282E+03   -0.28152E+02   -0.27758E+02 20928   0.691E+01
DAV:   5    -0.197587264737E+03   -0.77082E+00   -0.76761E+00 20928   0.126E+01
SDA:   6    -0.159704584076E+03    0.37883E+02   -0.76761E+00 20928   0.962E+01 0.000E+00
CGA:   7    -0.161196336750E+03   -0.14918E+01   -0.14947E+01 20928   0.972E+00 0.266E-01
CGA:   8    -0.161405194414E+03   -0.20886E+00   -0.20880E+00 20928   0.357E+00 0.227E-02
CGA:   9    -0.161486503128E+03   -0.81309E-01   -0.81361E-01 20928   0.101E+00-0.204E-02
CGA:  10    -0.161513436335E+03   -0.26933E-01   -0.26572E-01 20928   0.300E-01 0.550E-02
CGA:  11    -0.161523088107E+03   -0.96518E-02   -0.93210E-02 20928   0.118E-01 0.353E-02
CGA:  12    -0.161527107475E+03   -0.40194E-02   -0.39540E-02 20928   0.481E-02 0.705E-03
CGA:  13    -0.161528343795E+03   -0.12363E-02   -0.12251E-02 20928   0.861E-03 0.397E-03
CGA:  14    -0.161528584087E+03   -0.24029E-03   -0.23219E-03 20928   0.202E-03 0.229E-03
CGA:  15    -0.161528627197E+03   -0.43111E-04   -0.46904E-04 20928   0.742E-04 0.118E-03
CGA:  16    -0.161528637420E+03   -0.10223E-04   -0.12550E-04 20928   0.410E-04 0.519E-04
CGA:  17    -0.161528643471E+03   -0.60509E-05   -0.72291E-05 20928   0.279E-04 0.335E-04
   1 F= -.16152864E+03 E0= -.16152864E+03  d E =-.161529E+03  mag=     4.0000
