       N       E                     dE             d eps       ncg     rms          rms(c)
DAV:   1     0.769657845642E+03    0.76966E+03   -0.35945E+04107696   0.167E+03
DAV:   2    -0.235039464991E+02   -0.79316E+03   -0.74018E+03120088   0.502E+02
DAV:   3    -0.993028608875E+02   -0.75799E+02   -0.71849E+02121472   0.167E+02
DAV:   4    -0.101232227923E+03   -0.19294E+01   -0.19192E+01121240   0.298E+01
DAV:   5    -0.101286665092E+03   -0.54437E-01   -0.54418E-01124864   0.477E+00    0.515E+00
DAV:   6    -0.820157127811E+02    0.19271E+02   -0.82940E+00115888   0.180E+01    0.443E+00
DAV:   7    -0.819492344211E+02    0.66478E-01   -0.25657E-01141912   0.413E+00    0.226E+00
DAV:   8    -0.819225805105E+02    0.26654E-01   -0.34841E-02109832   0.111E+00    0.167E+00
DAV:   9    -0.819177655408E+02    0.48150E-02   -0.41394E-03125272   0.447E-01    0.127E+00
DAV:  10    -0.819143109555E+02    0.34546E-02   -0.23162E-03114072   0.288E-01    0.104E+00
DAV:  11    -0.819107959620E+02    0.35150E-02   -0.44002E-03116048   0.401E-01    0.713E-01
DAV:  12    -0.819099003838E+02    0.89558E-03   -0.62649E-04120464   0.152E-01    0.591E-01
DAV:  13    -0.819088068924E+02    0.10935E-02   -0.22992E-03113728   0.289E-01    0.350E-01
DAV:  14    -0.819086434029E+02    0.16349E-03   -0.21511E-03117464   0.282E-01    0.109E-01
DAV:  15    -0.819087449366E+02   -0.10153E-03   -0.29994E-04118808   0.104E-01    0.214E-02
DAV:  16    -0.819088187040E+02   -0.73767E-04   -0.49129E-05100000   0.424E-02    0.171E-02
DAV:  17    -0.819088704184E+02   -0.51714E-04   -0.13336E-05 54128   0.249E-02    0.389E-02
DAV:  18    -0.819088787306E+02   -0.83122E-05   -0.23873E-06 53928   0.137E-02
   1 F= -.81908879E+02 E0= -.81908879E+02  d E =-.819089E+02  mag=     0.0000
       N       E                     dE             d eps       ncg     rms          rms(c)
DAV:   1    -0.819226996649E+02   -0.13829E-01   -0.45416E-01106656   0.542E+00    0.107E+00
DAV:   2    -0.819095569416E+02    0.13143E-01   -0.41044E-02106688   0.135E+00    0.475E-01
DAV:   3    -0.819083858236E+02    0.11711E-02   -0.67671E-03127712   0.788E-01    0.136E-01
DAV:   4    -0.819076638956E+02    0.72193E-03   -0.18184E-04126576   0.108E-01    0.655E-02
DAV:   5    -0.819080700005E+02   -0.40610E-03   -0.12400E-05 64264   0.349E-02    0.383E-02
DAV:   6    -0.819080019137E+02    0.68087E-04   -0.17626E-05 70808   0.382E-02    0.179E-02
DAV:   7    -0.819080448947E+02   -0.42981E-04   -0.26691E-06 53848   0.151E-02    0.126E-02
DAV:   8    -0.819080895699E+02   -0.44675E-04   -0.24704E-06 53616   0.244E-02    0.119E-02
DAV:   9    -0.819080473670E+02    0.42203E-04   -0.20940E-06 53616   0.144E-02    0.891E-03
DAV:  10    -0.819080557101E+02   -0.83431E-05   -0.11079E-06 53608   0.832E-03
   2 F= -.81908056E+02 E0= -.81908056E+02  d E =0.823021E-03  mag=     0.0000
       N       E                     dE             d eps       ncg     rms          rms(c)
DAV:   1    -0.819108330376E+02   -0.27857E-02   -0.84796E-02106704   0.234E+00    0.447E-01
DAV:   2    -0.819088239570E+02    0.20091E-02   -0.72591E-03106656   0.571E-01    0.198E-01
DAV:   3    -0.819084575445E+02    0.36641E-03   -0.12047E-03128152   0.330E-01    0.587E-02
DAV:   4    -0.819087331391E+02   -0.27559E-03   -0.28942E-05 88752   0.448E-02    0.298E-02
DAV:   5    -0.819085665881E+02    0.16655E-03   -0.48784E-06 53736   0.223E-02    0.171E-02
DAV:   6    -0.819085781930E+02   -0.11605E-04   -0.38398E-06 53576   0.181E-02    0.950E-03
DAV:   7    -0.819085692799E+02    0.89132E-05   -0.10605E-06 53512   0.104E-02
   3 F= -.81908569E+02 E0= -.81908569E+02  d E =0.309451E-03  mag=     0.0000
       N       E                     dE             d eps       ncg     rms          rms(c)
DAV:   1    -0.819087764905E+02   -0.19830E-03   -0.63270E-03106608   0.639E-01    0.122E-01
DAV:   2    -0.819086718459E+02    0.10464E-03   -0.54414E-04106752   0.156E-01    0.534E-02
DAV:   3    -0.819086090985E+02    0.62747E-04   -0.90313E-05113800   0.908E-02    0.158E-02
DAV:   4    -0.819086931471E+02   -0.84049E-04   -0.25224E-06 53640   0.137E-02    0.862E-03
DAV:   5    -0.819086430573E+02    0.50090E-04   -0.60630E-07 53472   0.763E-03    0.525E-03
DAV:   6    -0.819086450990E+02   -0.20417E-05   -0.37709E-07 53360   0.616E-03
   4 F= -.81908645E+02 E0= -.81908645E+02  d E =0.233632E-03  mag=     0.0000
       N       E                     dE             d eps       ncg     rms          rms(c)
DAV:   1    -0.819087516880E+02   -0.10863E-03   -0.33011E-03106624   0.463E-01    0.881E-02
DAV:   2    -0.819086976320E+02    0.54056E-04   -0.28105E-04106704   0.112E-01    0.390E-02
DAV:   3    -0.819086647630E+02    0.32869E-04   -0.45550E-05104280   0.649E-02    0.119E-02
DAV:   4    -0.819087191504E+02   -0.54387E-04   -0.24514E-06 53384   0.118E-02    0.569E-03
DAV:   5    -0.819086819848E+02    0.37166E-04   -0.49849E-07 53400   0.641E-03    0.363E-03
DAV:   6    -0.819086875619E+02   -0.55771E-05   -0.19550E-07 53344   0.430E-03
   5 F= -.81908688E+02 E0= -.81908688E+02  d E =0.191169E-03  mag=     0.0000
       N       E                     dE             d eps       ncg     rms          rms(c)
DAV:   1    -0.819086086849E+02    0.73300E-04   -0.15325E-01106560   0.261E+00    0.950E-02
DAV:   2    -0.819091447791E+02   -0.53609E-03   -0.43263E-03106560   0.460E-01    0.529E-02
DAV:   3    -0.819091035031E+02    0.41276E-04   -0.75474E-05123472   0.793E-02    0.333E-02
DAV:   4    -0.819090348547E+02    0.68648E-04   -0.10150E-05 54488   0.346E-02    0.203E-02
DAV:   5    -0.819090732210E+02   -0.38366E-04   -0.60689E-06 53440   0.227E-02    0.134E-02
DAV:   6    -0.819090579369E+02    0.15284E-04   -0.19446E-06 53344   0.133E-02    0.122E-02
DAV:   7    -0.819090487497E+02    0.91872E-05   -0.14224E-06 53344   0.155E-02
   6 F= -.81909049E+02 E0= -.81909049E+02  d E =-.361188E-03  mag=     0.0000
       N       E                     dE             d eps       ncg     rms          rms(c)
DAV:   1    -0.819062691513E+02    0.27888E-02   -0.13793E+00106560   0.782E+00    0.287E-01
DAV:   2    -0.819102667448E+02   -0.39976E-02   -0.38763E-02106560   0.137E+00    0.158E-01
DAV:   3    -0.819100535564E+02    0.21319E-03   -0.68285E-04130344   0.242E-01    0.102E-01
DAV:   4    -0.819098304780E+02    0.22308E-03   -0.10915E-04131944   0.103E-01    0.570E-02
DAV:   5    -0.819099618946E+02   -0.13142E-03   -0.37831E-05109120   0.577E-02    0.421E-02
DAV:   6    -0.819099196366E+02    0.42258E-04   -0.65557E-06 54056   0.315E-02    0.364E-02
DAV:   7    -0.819098832367E+02    0.36400E-04   -0.31932E-05106880   0.736E-02    0.297E-02
DAV:   8    -0.819099191427E+02   -0.35906E-04   -0.33642E-05117800   0.664E-02    0.241E-02
DAV:   9    -0.819098992456E+02    0.19897E-04   -0.10294E-05 56256   0.360E-02    0.192E-02
DAV:  10    -0.819098828317E+02    0.16414E-04   -0.75961E-06 74936   0.339E-02    0.147E-02
DAV:  11    -0.819098612224E+02    0.21609E-04   -0.12377E-05 71816   0.355E-02    0.986E-03
DAV:  12    -0.819098523336E+02    0.88888E-05   -0.65385E-06 73296   0.242E-02
   7 F= -.81909852E+02 E0= -.81909852E+02  d E =-.116477E-02  mag=    -0.0000
       N       E                     dE             d eps       ncg     rms          rms(c)
DAV:   1    -0.818971584416E+02    0.12703E-01   -0.55182E+00106560   0.156E+01    0.579E-01
DAV:   2    -0.819115666459E+02   -0.14408E-01   -0.15505E-01106560   0.274E+00    0.312E-01
DAV:   3    -0.819109106011E+02    0.65604E-03   -0.27212E-03130400   0.491E-01    0.199E-01
DAV:   4    -0.819103560670E+02    0.55453E-03   -0.41501E-04133104   0.195E-01    0.101E-01
DAV:   5    -0.819106587251E+02   -0.30266E-03   -0.15311E-04132656   0.109E-01    0.633E-02
DAV:   6    -0.819105713757E+02    0.87349E-04   -0.15061E-05 75136   0.469E-02    0.486E-02
DAV:   7    -0.819105074353E+02    0.63940E-04   -0.40629E-05111728   0.789E-02    0.328E-02
DAV:   8    -0.819105722854E+02   -0.64850E-04   -0.23647E-05106248   0.513E-02    0.238E-02
DAV:   9    -0.819105412089E+02    0.31077E-04   -0.63504E-06 53664   0.288E-02    0.190E-02
DAV:  10    -0.819105207161E+02    0.20493E-04   -0.60559E-06 70352   0.307E-02    0.151E-02
DAV:  11    -0.819104961931E+02    0.24523E-04   -0.16685E-05 96752   0.472E-02    0.120E-02
DAV:  12    -0.819104795487E+02    0.16644E-04   -0.87891E-06 58568   0.249E-02    0.750E-03
DAV:  13    -0.819104769115E+02    0.26372E-05   -0.20673E-06 53288   0.134E-02
   8 F= -.81910477E+02 E0= -.81910477E+02  d E =-.178935E-02  mag=    -0.0000
       N       E                     dE             d eps       ncg     rms          rms(c)
DAV:   1    -0.819105872874E+02   -0.10774E-03   -0.22965E-02106560   0.103E+00    0.718E-02
DAV:   2    -0.819106164198E+02   -0.29132E-04   -0.74082E-04106608   0.189E-01    0.312E-02
DAV:   3    -0.819106099737E+02    0.64461E-05   -0.38335E-05 87616   0.571E-02    0.118E-02
DAV:   4    -0.819105656206E+02    0.44353E-04   -0.51626E-06 53440   0.182E-02    0.632E-03
DAV:   5    -0.819105995768E+02   -0.33956E-04   -0.12575E-06 53344   0.106E-02    0.425E-03
DAV:   6    -0.819105885690E+02    0.11008E-04   -0.40589E-07 53280   0.589E-03    0.322E-03
DAV:   7    -0.819105846281E+02    0.39409E-05   -0.12663E-07 53280   0.349E-03
   9 F= -.81910585E+02 E0= -.81910585E+02  d E =-.107717E-03  mag=    -0.0000
       N       E                     dE             d eps       ncg     rms          rms(c)
DAV:   1    -0.819109135867E+02   -0.32502E-03   -0.20665E-01106560   0.310E+00    0.215E-01
DAV:   2    -0.819109956074E+02   -0.82021E-04   -0.66693E-03106560   0.567E-01    0.929E-02
DAV:   3    -0.819109233760E+02    0.72231E-04   -0.36946E-04130200   0.172E-01    0.329E-02
DAV:   4    -0.819107781068E+02    0.14527E-03   -0.14213E-05 72200   0.358E-02    0.224E-02
DAV:   5    -0.819108641282E+02   -0.86021E-04   -0.55468E-06 53688   0.231E-02    0.145E-02
DAV:   6    -0.819108447773E+02    0.19351E-04   -0.25852E-06 53288   0.168E-02    0.124E-02
DAV:   7    -0.819108252400E+02    0.19537E-04   -0.12548E-06 53280   0.114E-02    0.106E-02
DAV:   8    -0.819108295179E+02   -0.42780E-05   -0.35475E-06 53752   0.291E-02
  10 F= -.81910830E+02 E0= -.81910830E+02  d E =-.352606E-03  mag=    -0.0000
       N       E                     dE             d eps       ncg     rms          rms(c)
DAV:   1    -0.819116571285E+02   -0.83189E-03   -0.82618E-01106560   0.620E+00    0.432E-01
DAV:   2    -0.819116812801E+02   -0.24152E-04   -0.26626E-02106624   0.113E+00    0.185E-01
DAV:   3    -0.819113690363E+02    0.31224E-03   -0.14686E-03129664   0.345E-01    0.659E-02
DAV:   4    -0.819110765816E+02    0.29245E-03   -0.72052E-05133600   0.719E-02    0.409E-02
DAV:   5    -0.819112737751E+02   -0.19719E-03   -0.95631E-06 55216   0.355E-02    0.294E-02
DAV:   6    -0.819111949549E+02    0.78820E-04   -0.66050E-06 53600   0.265E-02    0.258E-02
DAV:   7    -0.819111921508E+02    0.28041E-05   -0.33052E-06 53896   0.180E-02
  11 F= -.81911192E+02 E0= -.81911192E+02  d E =-.715239E-03  mag=    -0.0000
       N       E                     dE             d eps       ncg     rms          rms(c)
DAV:   1    -0.819147098228E+02   -0.35149E-02   -0.33037E+00106560   0.124E+01    0.867E-01
DAV:   2    -0.819130633752E+02    0.16464E-02   -0.10631E-01106560   0.225E+00    0.371E-01
DAV:   3    -0.819118269826E+02    0.12364E-02   -0.58037E-03129680   0.691E-01    0.134E-01
DAV:   4    -0.819111999942E+02    0.62699E-03   -0.29615E-04142432   0.145E-01    0.844E-02
DAV:   5    -0.819116246336E+02   -0.42464E-03   -0.50453E-05125960   0.727E-02    0.625E-02
DAV:   6    -0.819114789948E+02    0.14564E-03   -0.14672E-05 86200   0.506E-02    0.569E-02
DAV:   7    -0.819114855192E+02   -0.65244E-05   -0.11109E-05 72712   0.380E-02
  12 F= -.81911486E+02 E0= -.81911486E+02  d E =-.100861E-02  mag=     0.0000
       N       E                     dE             d eps       ncg     rms          rms(c)
DAV:   1    -0.819117607783E+02   -0.28178E-03   -0.21019E-02117248   0.119E+00    0.121E-01
DAV:   2    -0.819115426438E+02    0.21813E-03   -0.93359E-04109520   0.246E-01    0.679E-02
DAV:   3    -0.819116264087E+02   -0.83765E-04   -0.11808E-04128976   0.104E-01    0.355E-02
DAV:   4    -0.819115065433E+02    0.11987E-03   -0.72533E-06 55616   0.298E-02    0.274E-02
DAV:   5    -0.819115467685E+02   -0.40225E-04   -0.37519E-06 54152   0.210E-02    0.245E-02
DAV:   6    -0.819115380245E+02    0.87440E-05   -0.35590E-06 57408   0.222E-02
  13 F= -.81911538E+02 E0= -.81911538E+02  d E =-.525053E-04  mag=     0.0000
