       N       E                     dE             d eps       ncg     rms          ort
DAV:   1     0.243928332518E+04    0.24393E+04   -0.79977E+04 20928   0.211E+03
DAV:   2     0.240395410299E+03   -0.21989E+04   -0.20477E+04 20928   0.613E+02
DAV:   3    -0.177844421828E+03   -0.41824E+03   -0.40396E+03 20928   0.268E+02
DAV:   4    -0.204555211572E+03   -0.26711E+02   -0.26357E+02 20928   0.694E+01
DAV:   5    -0.205276117052E+03   -0.72091E+00   -0.71828E+00 20928   0.129E+01
SDA:   6    -0.131511437511E+03    0.73765E+02   -0.71828E+00 20928   0.212E+03 0.000E+00
CGA:   7    -0.155293505172E+03   -0.23782E+02   -0.26580E+02 20928   0.186E+02 0.541E+01
CGA:   8    -0.158412539487E+03   -0.31190E+01   -0.31235E+01 20928   0.519E+01 0.781E-01
CGA:   9    -0.159552815516E+03   -0.11403E+01   -0.11401E+01 20928   0.265E+01 0.145E-01
CGA:  10    -0.160178213481E+03   -0.62540E+00   -0.62690E+00 20928   0.135E+01-0.293E-01
CGA:  11    -0.160479616803E+03   -0.30140E+00   -0.30239E+00 20928   0.405E+00-0.328E-01
CGA:  12    -0.160565404022E+03   -0.85787E-01   -0.86032E-01 20928   0.122E+00-0.136E-01
CGA:  13    -0.160593696244E+03   -0.28292E-01   -0.28369E-01 20928   0.367E-01-0.194E-02
CGA:  14    -0.160602873404E+03   -0.91772E-02   -0.91525E-02 20928   0.128E-01 0.476E-03
CGA:  15    -0.160606850687E+03   -0.39773E-02   -0.40415E-02 20928   0.599E-02-0.605E-03
CGA:  16    -0.160608587245E+03   -0.17366E-02   -0.17518E-02 20928   0.246E-02-0.157E-03
CGA:  17    -0.160609269057E+03   -0.68181E-03   -0.66557E-03 20928   0.958E-03 0.260E-03
CGA:  18    -0.160609673114E+03   -0.40406E-03   -0.44367E-03 20928   0.635E-03-0.196E-03
CGA:  19    -0.160608216995E+03    0.14561E-02   -0.79234E-03 20928   0.676E-02-0.178E-02
CGA:  20    -0.160609803425E+03   -0.15864E-02   -0.16565E-02 20928   0.105E-02 0.405E-03
CGA:  21    -0.160610221579E+03   -0.41815E-03   -0.42186E-03 20928   0.236E-03 0.129E-03
CGA:  22    -0.160610332975E+03   -0.11140E-03   -0.11136E-03 20928   0.752E-04 0.290E-05
CGA:  23    -0.160610363036E+03   -0.30062E-04   -0.30216E-04 20928   0.287E-04 0.156E-04
CGA:  24    -0.160610354795E+03    0.82417E-05   -0.47193E-04 20928   0.167E-03-0.524E-04
CGA:  25    -0.160610383549E+03   -0.28754E-04   -0.41295E-04 20928   0.523E-04 0.411E-04
CGA:  26    -0.160610372200E+03    0.11349E-04   -0.95861E-05 20928   0.105E-03 0.296E-04
CGA:  27    -0.160610347523E+03    0.24676E-04   -0.17370E-04 20928   0.179E-03 0.387E-04
CGA:  28    -0.160610186016E+03    0.16151E-03   -0.24812E-04 20928   0.731E-03 0.322E-03
CGA:  29    -0.160610090241E+03    0.95775E-04   -0.11730E-03 20928   0.123E-02 0.279E-03
CGA:  30    -0.160609434027E+03    0.65621E-03   -0.18599E-03 20928   0.277E-02 0.169E-02
CGA:  31    -0.160609575508E+03   -0.14148E-03   -0.51266E-03 20928   0.306E-02 0.100E-02
CGA:  32    -0.160608989738E+03    0.58577E-03   -0.54895E-03 20928   0.349E-02 0.239E-02
CGA:  33    -0.160609400131E+03   -0.41039E-03   -0.69665E-03 20928   0.300E-02 0.131E-02
CGA:  34    -0.160609414408E+03   -0.14277E-04   -0.62939E-03 20928   0.202E-02 0.172E-02
CGA:  35    -0.160609696670E+03   -0.28226E-03   -0.40441E-03 20928   0.148E-02 0.896E-03
CGA:  36    -0.160610005036E+03   -0.30837E-03   -0.42070E-03 20928   0.602E-03 0.646E-03
CGA:  37    -0.160610168234E+03   -0.16320E-03   -0.18523E-03 20928   0.307E-03 0.696E-04
CGA:  38    -0.160610195450E+03   -0.27216E-04   -0.51563E-04 20928   0.224E-03 0.159E-03
CGA:  39    -0.160610300578E+03   -0.10513E-03   -0.99015E-04 20928   0.579E-04 0.772E-05
CGA:  40    -0.899309404181E+02    0.70679E+02   -0.13363E+02 20928   0.248E+03-0.531E+02
CGA:  41    -0.143133183565E+03   -0.53202E+02   -0.87230E+02 20928   0.215E+02 0.247E+02
CGA:  42    -0.152555924064E+03   -0.94227E+01   -0.10819E+02 20928   0.232E+02 0.132E+02
CGA:  43    -0.156038928014E+03   -0.34830E+01   -0.69747E+01 20928   0.805E+01 0.251E+01
CGA:  44    -0.158041871536E+03   -0.20029E+01   -0.33377E+01 20928   0.270E+01-0.210E+00
CGA:  45    -0.140917310414E+03    0.17125E+02   -0.27834E+01 20928   0.369E+03-0.573E+02
CGA:  46    -0.159515338453E+03   -0.18598E+02   -0.52229E+02 20928   0.361E+01-0.931E+01
CGA:  47    -0.160456677883E+03   -0.94134E+00   -0.92195E+00 20928   0.247E+00 0.449E-01
CGA:  48    -0.160573600478E+03   -0.11692E+00   -0.11713E+00 20928   0.563E-01 0.530E-03
CGA:  49    -0.160599765047E+03   -0.26165E-01   -0.26117E-01 20928   0.155E-01-0.247E-03
CGA:  50    -0.160607606460E+03   -0.78414E-02   -0.78390E-02 20928   0.437E-02-0.254E-05
CGA:  51    -0.160609587007E+03   -0.19805E-02   -0.19585E-02 20928   0.108E-02-0.134E-03
CGA:  52    -0.160610166333E+03   -0.57933E-03   -0.58609E-03 20928   0.335E-03-0.127E-03
CGA:  53    -0.160610334903E+03   -0.16857E-03   -0.17194E-03 20928   0.121E-03-0.477E-04
CGA:  54    -0.160610374643E+03   -0.39739E-04   -0.41854E-04 20928   0.375E-04 0.127E-04
CGA:  55    -0.160610387366E+03   -0.12724E-04   -0.14521E-04 20928   0.130E-04 0.108E-04
CGA:  56    -0.160610393143E+03   -0.57765E-05   -0.63348E-05 20928   0.526E-05 0.460E-05
   1 F= -.16061039E+03 E0= -.16061039E+03  d E =-.160610E+03  mag=     8.0000
       N       E                     dE             d eps       ncg     rms          ort
SDA:   1    -0.160572833543E+03    0.37554E-01    0.00000E+00 20928   0.109E+00 0.000E+00
CGA:   2    -0.160597449106E+03   -0.24616E-01   -0.24934E-01 20928   0.605E-01 0.120E-02
CGA:   3    -0.160608394793E+03   -0.10946E-01   -0.11248E-01 20928   0.157E-01 0.890E-03
CGA:   4    -0.160610795807E+03   -0.24010E-02   -0.25274E-02 20928   0.313E-02 0.383E-03
CGA:   5    -0.160611347650E+03   -0.55184E-03   -0.58127E-03 20928   0.876E-03 0.101E-03
CGA:   6    -0.160611522942E+03   -0.17529E-03   -0.18007E-03 20928   0.229E-03 0.186E-04
CGA:   7    -0.160611556379E+03   -0.33437E-04   -0.43852E-04 20928   0.595E-04 0.413E-04
CGA:   8    -0.160611563697E+03   -0.73181E-05   -0.12752E-04 20928   0.187E-04 0.222E-04
   2 F= -.16061156E+03 E0= -.16061156E+03  d E =-.117055E-02  mag=     8.0000
       N       E                     dE             d eps       ncg     rms          ort
SDA:   1    -0.160588563796E+03    0.22993E-01    0.00000E+00 20928   0.653E-01 0.000E+00
CGA:   2    -0.160603391813E+03   -0.14828E-01   -0.15019E-01 20928   0.357E-01 0.108E-02
CGA:   3    -0.160609874436E+03   -0.64826E-02   -0.66671E-02 20928   0.914E-02 0.830E-03
CGA:   4    -0.160611268068E+03   -0.13936E-02   -0.14770E-02 20928   0.177E-02 0.359E-03
CGA:   5    -0.160611586549E+03   -0.31848E-03   -0.33776E-03 20928   0.494E-03 0.989E-04
CGA:   6    -0.160611687766E+03   -0.10122E-03   -0.10461E-03 20928   0.126E-03 0.202E-04
CGA:   7    -0.160611702295E+03   -0.14528E-04   -0.21789E-04 20928   0.324E-04 0.378E-04
CGA:   8    -0.160611704119E+03   -0.18242E-05   -0.59097E-05 20928   0.126E-04 0.196E-04
   3 F= -.16061170E+03 E0= -.16061170E+03  d E =-.131098E-02  mag=     8.0000
       N       E                     dE             d eps       ncg     rms          ort
SDA:   1    -0.160588556311E+03    0.23146E-01    0.00000E+00 20928   0.582E-01 0.000E+00
CGA:   2    -0.160607760440E+03   -0.19204E-01   -0.19220E-01 20928   0.227E-01 0.178E-02
CGA:   3    -0.160611349274E+03   -0.35888E-02   -0.37079E-02 20928   0.471E-02 0.643E-03
CGA:   4    -0.160612073885E+03   -0.72461E-03   -0.78360E-03 20928   0.103E-02 0.348E-03
CGA:   5    -0.160612257249E+03   -0.18336E-03   -0.19885E-03 20928   0.271E-03 0.108E-03
CGA:   6    -0.160612306245E+03   -0.48996E-04   -0.53356E-04 20928   0.647E-04 0.319E-04
CGA:   7    -0.160612311036E+03   -0.47909E-05   -0.10192E-04 20928   0.199E-04 0.325E-04
   4 F= -.16061231E+03 E0= -.16061231E+03  d E =-.606917E-03  mag=     8.0000
       N       E                     dE             d eps       ncg     rms          ort
SDA:   1    -0.160611301829E+03    0.10044E-02    0.00000E+00 20928   0.306E-02 0.000E+00
CGA:   2    -0.160612207475E+03   -0.90565E-03   -0.90347E-03 20928   0.102E-02 0.410E-03
CGA:   3    -0.160612365273E+03   -0.15780E-03   -0.18129E-03 20928   0.232E-03 0.176E-03
CGA:   4    -0.160612388583E+03   -0.23310E-04   -0.37247E-04 20928   0.546E-04 0.946E-04
CGA:   5    -0.160612392202E+03   -0.36184E-05   -0.94567E-05 20928   0.211E-04 0.380E-04
CGA:   6    -0.160612394549E+03   -0.23471E-05   -0.34459E-05 20928   0.977E-05 0.104E-04
   5 F= -.16061239E+03 E0= -.16061239E+03  d E =-.690430E-03  mag=     8.0000
       N       E                     dE             d eps       ncg     rms          ort
SDA:   1    -0.160603084698E+03    0.93075E-02    0.00000E+00 20928   0.277E-01 0.000E+00
CGA:   2    -0.160609155933E+03   -0.60712E-02   -0.60667E-02 20928   0.145E-01-0.124E-03
CGA:   3    -0.160611890292E+03   -0.27344E-02   -0.27307E-02 20928   0.431E-02-0.570E-04
CGA:   4    -0.160612585883E+03   -0.69559E-03   -0.69377E-03 20928   0.902E-03-0.199E-04
CGA:   5    -0.160612747053E+03   -0.16117E-03   -0.16201E-03 20928   0.240E-03 0.130E-04
CGA:   6    -0.160612794609E+03   -0.47555E-04   -0.47811E-04 20928   0.629E-04 0.559E-05
CGA:   7    -0.160612811196E+03   -0.16588E-04   -0.27575E-04 20928   0.114E-03-0.582E-04
CGA:   8    -0.160612825526E+03   -0.14329E-04   -0.15082E-04 20928   0.120E-04 0.641E-05
CGA:   9    -0.160612828165E+03   -0.26391E-05   -0.26915E-05 20928   0.313E-05 0.167E-05
   6 F= -.16061283E+03 E0= -.16061283E+03  d E =-.433616E-03  mag=     8.0000
       N       E                     dE             d eps       ncg     rms          ort
SDA:   1    -0.160601380147E+03    0.11445E-01    0.00000E+00 20928   0.329E-01 0.000E+00
CGA:   2    -0.160608579169E+03   -0.71990E-02   -0.71951E-02 20928   0.170E-01-0.167E-03
CGA:   3    -0.160611812181E+03   -0.32330E-02   -0.32284E-02 20928   0.513E-02-0.904E-04
CGA:   4    -0.160612639063E+03   -0.82688E-03   -0.82391E-03 20928   0.108E-02-0.379E-04
CGA:   5    -0.160612831794E+03   -0.19273E-03   -0.19323E-03 20928   0.291E-03 0.914E-05
CGA:   6    -0.160612889237E+03   -0.57443E-04   -0.57647E-04 20928   0.760E-04 0.574E-05
CGA:   7    -0.160612909383E+03   -0.20146E-04   -0.31879E-04 20928   0.123E-03-0.646E-04
CGA:   8    -0.160612925198E+03   -0.15815E-04   -0.16445E-04 20928   0.133E-04 0.597E-05
CGA:   9    -0.160612928304E+03   -0.31060E-05   -0.31182E-05 20928   0.376E-05 0.132E-05
   7 F= -.16061293E+03 E0= -.16061293E+03  d E =-.533755E-03  mag=     8.0000
       N       E                     dE             d eps       ncg     rms          ort
SDA:   1    -0.160612632075E+03    0.29312E-03    0.00000E+00 20928   0.952E-03 0.000E+00
CGA:   2    -0.160612832449E+03   -0.20037E-03   -0.20104E-03 20928   0.483E-03 0.307E-04
CGA:   3    -0.160612925610E+03   -0.93161E-04   -0.93722E-04 20928   0.139E-03 0.128E-04
CGA:   4    -0.160612948548E+03   -0.22938E-04   -0.23202E-04 20928   0.290E-04 0.393E-05
CGA:   5    -0.160612955155E+03   -0.66063E-05   -0.65842E-05 20928   0.108E-04-0.381E-05
CGA:   6    -0.160612957336E+03   -0.21817E-05   -0.22122E-05 20928   0.463E-05-0.286E-05
   8 F= -.16061296E+03 E0= -.16061296E+03  d E =-.562788E-03  mag=     8.0000
       N       E                     dE             d eps       ncg     rms          ort
SDA:   1    -0.160611010283E+03    0.19449E-02    0.00000E+00 20928   0.566E-02 0.000E+00
CGA:   2    -0.160612219578E+03   -0.12093E-02   -0.12098E-02 20928   0.281E-02 0.886E-04
CGA:   3    -0.160612759760E+03   -0.54018E-03   -0.54131E-03 20928   0.825E-03 0.385E-04
CGA:   4    -0.160612897317E+03   -0.13756E-03   -0.13829E-03 20928   0.173E-03 0.141E-04
CGA:   5    -0.160612932018E+03   -0.34700E-04   -0.34561E-04 20928   0.521E-04-0.730E-05
CGA:   6    -0.160612942146E+03   -0.10128E-04   -0.10095E-04 20928   0.142E-04-0.286E-05
CGA:   7    -0.160612942702E+03   -0.55539E-06   -0.13496E-05 20928   0.504E-05 0.703E-05
   9 F= -.16061294E+03 E0= -.16061294E+03  d E =-.548153E-03  mag=     8.0000
