       N       E                     dE             d eps       ncg     rms          rms(c)
DAV:   1     0.892993688763E+03    0.89299E+03   -0.44859E+04 89544   0.168E+03
DAV:   2    -0.170250721203E+02   -0.91002E+03   -0.84638E+03 99584   0.493E+02
DAV:   3    -0.100159131008E+03   -0.83134E+02   -0.79368E+02 96336   0.163E+02
DAV:   4    -0.102371697293E+03   -0.22126E+01   -0.22049E+01 96928   0.299E+01
DAV:   5    -0.102436119855E+03   -0.64423E-01   -0.64416E-01 99976   0.476E+00    0.546E+00
DAV:   6    -0.775000421633E+02    0.24936E+02   -0.10836E+01 88280   0.183E+01    0.400E+00
DAV:   7    -0.773632707389E+02    0.13677E+00   -0.35354E-01128616   0.546E+00    0.250E+00
DAV:   8    -0.773416021317E+02    0.21669E-01   -0.39463E-02 87312   0.147E+00    0.169E+00
DAV:   9    -0.773304044815E+02    0.11198E-01   -0.10330E-02 94008   0.553E-01    0.132E+00
DAV:  10    -0.773258161689E+02    0.45883E-02   -0.29329E-03 87808   0.311E-01    0.105E+00
DAV:  11    -0.773209048790E+02    0.49113E-02   -0.48851E-03 91344   0.370E-01    0.732E-01
DAV:  12    -0.773199536582E+02    0.95122E-03   -0.42185E-04 96584   0.119E-01    0.635E-01
DAV:  13    -0.773177702067E+02    0.21835E-02   -0.31663E-03 88064   0.299E-01    0.370E-01
DAV:  14    -0.773170685290E+02    0.70168E-03   -0.11545E-03 93536   0.185E-01    0.201E-01
DAV:  15    -0.773168280926E+02    0.24044E-03   -0.47024E-04 88136   0.115E-01    0.966E-02
DAV:  16    -0.773167653058E+02    0.62787E-04   -0.22911E-04 93240   0.815E-02    0.194E-02
DAV:  17    -0.773167629717E+02    0.23341E-05   -0.10736E-05 43392   0.197E-02
   1 F= -.77316763E+02 E0= -.77316763E+02  d E =-.773168E+02  mag=     0.0000
