       N       E                     dE             d eps       ncg     rms          rms(c)
DAV:   1     0.282277641718E+04    0.28228E+04   -0.12316E+05201592   0.218E+03
DAV:   2     0.127032972090E+03   -0.26957E+04   -0.25707E+04171980   0.675E+02
DAV:   3    -0.193080490832E+03   -0.32011E+03   -0.31087E+03186544   0.250E+02
DAV:   4    -0.208178530837E+03   -0.15098E+02   -0.14669E+02185904   0.504E+01
DAV:   5    -0.208451467765E+03   -0.27294E+00   -0.27243E+00188244   0.818E+00    0.109E+01
DAV:   6    -0.166767110099E+03    0.41684E+02   -0.48144E+01195692   0.404E+01    0.188E+01
DAV:   7    -0.164144185528E+03    0.26229E+01   -0.49744E+00204932   0.153E+01    0.717E+00
DAV:   8    -0.163840498360E+03    0.30369E+00   -0.60562E-01198872   0.414E+00    0.383E+00
DAV:   9    -0.163797079658E+03    0.43419E-01   -0.22237E-02189820   0.808E-01    0.324E+00
DAV:  10    -0.163718378892E+03    0.78701E-01   -0.74085E-02185140   0.154E+00    0.200E+00
DAV:  11    -0.163700165985E+03    0.18213E-01   -0.10638E-02205144   0.635E-01    0.153E+00
DAV:  12    -0.163691777061E+03    0.83889E-02   -0.31209E-03202452   0.370E-01    0.127E+00
DAV:  13    -0.163679340302E+03    0.12437E-01   -0.10037E-02191984   0.586E-01    0.801E-01
DAV:  14    -0.163672455267E+03    0.68850E-02   -0.68439E-03185620   0.476E-01    0.419E-01
DAV:  15    -0.163669976822E+03    0.24784E-02   -0.21369E-03195412   0.281E-01    0.206E-01
DAV:  16    -0.163668721705E+03    0.12551E-02   -0.12126E-03197672   0.212E-01    0.409E-02
DAV:  17    -0.163668626148E+03    0.95557E-04   -0.28835E-05132644   0.348E-02    0.233E-02
DAV:  18    -0.163668581113E+03    0.45036E-04   -0.66458E-06 90548   0.230E-02    0.140E-02
DAV:  19    -0.163668542757E+03    0.38355E-04   -0.45437E-06 90228   0.160E-02    0.586E-03
DAV:  20    -0.163668524910E+03    0.17847E-04   -0.15842E-06 89840   0.790E-03    0.186E-03
DAV:  21    -0.163668519509E+03    0.54009E-05   -0.34737E-07 89428   0.529E-03
   1 F= -.16366852E+03 E0= -.16366158E+03  d E =-.163669E+03  mag=    -0.4649
