       N       E                     dE             d eps       ncg     rms          ort
DAV:   1     0.283664480876E+04    0.28366E+04   -0.97149E+04 34800   0.205E+03
DAV:   2     0.248785713760E+03   -0.25879E+04   -0.23673E+04 34800   0.575E+02
DAV:   3    -0.218273876920E+03   -0.46706E+03   -0.45287E+03 34800   0.254E+02
DAV:   4    -0.246473443274E+03   -0.28200E+02   -0.27636E+02 34800   0.633E+01
DAV:   5    -0.247165693179E+03   -0.69225E+00   -0.68860E+00 34800   0.112E+01
SDA:   6    -0.132773651479E+03    0.11439E+03   -0.68860E+00 34800   0.319E+03 0.000E+00
CGA:   7    -0.176473635760E+03   -0.43700E+02   -0.41053E+02 34800   0.620E+02 0.250E+02
CGA:   8    -0.184981985073E+03   -0.85083E+01   -0.90935E+01 34800   0.216E+02 0.123E+01
CGA:   9    -0.188688052579E+03   -0.37061E+01   -0.36785E+01 34800   0.113E+02-0.910E+00
CGA:  10    -0.190673831025E+03   -0.19858E+01   -0.19631E+01 34800   0.610E+01-0.110E+01
CGA:  11    -0.191584924914E+03   -0.91109E+00   -0.91608E+00 34800   0.270E+01 0.390E-01
CGA:  12    -0.192050951062E+03   -0.46603E+00   -0.46908E+00 34800   0.102E+01 0.640E-01
CGA:  13    -0.192263699604E+03   -0.21275E+00   -0.21264E+00 34800   0.438E+00 0.228E-02
CGA:  14    -0.192359277402E+03   -0.95578E-01   -0.95483E-01 34800   0.180E+00 0.229E-02
CGA:  15    -0.192400345164E+03   -0.41068E-01   -0.41017E-01 34800   0.775E-01 0.109E-02
CGA:  16    -0.192419815193E+03   -0.19470E-01   -0.19510E-01 34800   0.345E-01-0.725E-03
CGA:  17    -0.192428853021E+03   -0.90378E-02   -0.90803E-02 34800   0.172E-01-0.608E-03
CGA:  18    -0.192433783374E+03   -0.49304E-02   -0.49208E-02 34800   0.100E-01 0.115E-03
CGA:  19    -0.192437103719E+03   -0.33203E-02   -0.33320E-02 34800   0.753E-02-0.743E-04
CGA:  20    -0.192440329581E+03   -0.32259E-02   -0.36448E-02 34800   0.957E-02-0.149E-02
CGA:  21    -0.192443762074E+03   -0.34325E-02   -0.46310E-02 34800   0.167E-01-0.318E-02
CGA:  22    -0.192448176772E+03   -0.44147E-02   -0.51814E-02 34800   0.192E-01-0.345E-02
CGA:  23    -0.192453253397E+03   -0.50766E-02   -0.52114E-02 34800   0.134E-01-0.125E-02
CGA:  24    -0.192457390076E+03   -0.41367E-02   -0.41534E-02 34800   0.790E-02-0.944E-04
CGA:  25    -0.192460071691E+03   -0.26816E-02   -0.26844E-02 34800   0.479E-02 0.135E-04
CGA:  26    -0.192461802980E+03   -0.17313E-02   -0.17175E-02 34800   0.313E-02 0.172E-03
CGA:  27    -0.192463021601E+03   -0.12186E-02   -0.11863E-02 34800   0.246E-02 0.354E-03
CGA:  28    -0.192464262842E+03   -0.12412E-02   -0.11868E-02 34800   0.251E-02 0.363E-03
CGA:  29    -0.192465758063E+03   -0.14952E-02   -0.14429E-02 34800   0.311E-02 0.275E-03
CGA:  30    -0.192467249797E+03   -0.14917E-02   -0.14454E-02 34800   0.289E-02 0.440E-03
CGA:  31    -0.192468334498E+03   -0.10847E-02   -0.10694E-02 34800   0.191E-02 0.600E-03
CGA:  32    -0.192469018203E+03   -0.68370E-03   -0.68603E-03 34800   0.973E-03 0.467E-03
CGA:  33    -0.192469403682E+03   -0.38548E-03   -0.38279E-03 34800   0.469E-03 0.193E-03
CGA:  34    -0.192469616497E+03   -0.21282E-03   -0.21292E-03 34800   0.259E-03-0.132E-05
CGA:  35    -0.192469709874E+03   -0.93377E-04   -0.94531E-04 34800   0.147E-03-0.214E-04
CGA:  36    -0.192469761654E+03   -0.51780E-04   -0.54240E-04 34800   0.103E-03-0.260E-04
SDA:  37    -0.192469796938E+03   -0.35284E-04   -0.44674E-04 34800   0.132E-03-0.444E-04
CGA:  38    -0.192469842119E+03   -0.45182E-04   -0.44618E-04 34800   0.358E-04 0.342E-04
CGA:  39    -0.192469858718E+03   -0.16599E-04   -0.16041E-04 34800   0.185E-04 0.174E-04
CGA:  40    -0.192469873998E+03   -0.15280E-04   -0.14879E-04 34800   0.263E-04 0.498E-05
CGA:  41    -0.192469887396E+03   -0.13397E-04   -0.18122E-04 34800   0.653E-04-0.179E-04
CGA:  42    -0.192469912204E+03   -0.24808E-04   -0.24160E-04 34800   0.216E-04 0.801E-05
CGA:  43    -0.154358002225E+03    0.38112E+02   -0.48978E+01 34800   0.287E+03-0.557E+02
CGA:  44    -0.186181057084E+03   -0.31823E+02   -0.96706E+02 34800   0.252E+02-0.431E+01
CGA:  45    -0.191207720098E+03   -0.50267E+01   -0.48635E+01 34800   0.524E+01 0.516E+01
CGA:  46    -0.192118786953E+03   -0.91107E+00   -0.14403E+01 34800   0.202E+01 0.530E-01
CGA:  47    -0.192301215415E+03   -0.18243E+00   -0.60577E+00 34800   0.679E+00-0.836E-01
CGA:  48    -0.192433534969E+03   -0.13232E+00   -0.15270E+00 34800   0.766E-01 0.231E-01
CGA:  49    -0.192444467137E+03   -0.10932E-01   -0.21132E-01 34800   0.437E-01 0.207E-01
CGA:  50    -0.192446434310E+03   -0.19672E-02   -0.11580E-01 34800   0.368E-01 0.267E-01
CGA:  51    -0.192454800765E+03   -0.83665E-02   -0.10536E-01 34800   0.221E-01 0.147E-01
CGA:  52    -0.192458089093E+03   -0.32883E-02   -0.69079E-02 34800   0.173E-01 0.162E-01
CGA:  53    -0.192463538090E+03   -0.54490E-02   -0.59365E-02 34800   0.871E-02 0.226E-02
CGA:  54    -0.192465595088E+03   -0.20570E-02   -0.27983E-02 34800   0.503E-02 0.233E-02
CGA:  55    -0.192467330816E+03   -0.17357E-02   -0.20939E-02 34800   0.125E-02 0.317E-03
CGA:  56    -0.192468461649E+03   -0.11308E-02   -0.14367E-02 34800   0.170E-02-0.595E-03
CGA:  57    -0.192468606539E+03   -0.14489E-03   -0.14115E-03 34800   0.131E-02 0.508E-04
CGA:  58    -0.192468898886E+03   -0.29235E-03   -0.28906E-03 34800   0.776E-03 0.336E-04
CGA:  59    -0.192469133055E+03   -0.23417E-03   -0.22180E-03 34800   0.718E-03-0.104E-04
CGA:  60    -0.192469340982E+03   -0.20793E-03   -0.19177E-03 34800   0.643E-03-0.460E-05
CGA:  61    -0.192469481591E+03   -0.14061E-03   -0.13671E-03 34800   0.495E-03 0.406E-04
CGA:  62    -0.192469574053E+03   -0.92462E-04   -0.10215E-03 34800   0.397E-03 0.677E-04
CGA:  63    -0.192469640911E+03   -0.66859E-04   -0.83295E-04 34800   0.341E-03 0.822E-04
CGA:  64    -0.192469697464E+03   -0.56552E-04   -0.73625E-04 34800   0.292E-03 0.789E-04
CGA:  65    -0.192469748313E+03   -0.50849E-04   -0.63218E-04 34800   0.244E-03 0.570E-04
CGA:  66    -0.192469794192E+03   -0.45879E-04   -0.51227E-04 34800   0.205E-03 0.242E-04
CGA:  67    -0.192469833664E+03   -0.39472E-04   -0.39300E-04 34800   0.177E-03-0.267E-05
CGA:  68    -0.192469865598E+03   -0.31934E-04   -0.29094E-04 34800   0.154E-03-0.158E-04
CGA:  69    -0.192469890572E+03   -0.24974E-04   -0.21757E-04 34800   0.133E-03-0.172E-04
CGA:  70    -0.192469910574E+03   -0.20002E-04   -0.17476E-04 34800   0.116E-03-0.132E-04
CGA:  71    -0.192469927821E+03   -0.17247E-04   -0.15343E-04 34800   0.104E-03-0.957E-05
CGA:  72    -0.192469943799E+03   -0.15978E-04   -0.14228E-04 34800   0.953E-04-0.838E-05
CGA:  73    -0.192469958869E+03   -0.15070E-04   -0.13121E-04 34800   0.862E-04-0.939E-05
CGA:  74    -0.192469972535E+03   -0.13665E-04   -0.11519E-04 34800   0.767E-04-0.109E-04
CGA:  75    -0.192469984344E+03   -0.11809E-04   -0.97625E-05 34800   0.691E-04-0.109E-04
CGA:  76    -0.192469994302E+03   -0.99580E-05   -0.83578E-05 34800   0.637E-04-0.858E-05
   1 F= -.19246999E+03 E0= -.19246999E+03  d E =-.192470E+03  mag=    18.0000
       N       E                     dE             d eps       ncg     rms          ort
SDA:   1    -0.192427969298E+03    0.42015E-01    0.00000E+00 34800   0.125E+00 0.000E+00
CGA:   2    -0.192454448497E+03   -0.26479E-01   -0.26531E-01 34800   0.668E-01 0.658E-03
CGA:   3    -0.192466792741E+03   -0.12344E-01   -0.12399E-01 34800   0.165E-01 0.521E-03
CGA:   4    -0.192469632649E+03   -0.28399E-02   -0.28249E-02 34800   0.435E-02-0.148E-03
CGA:   5    -0.192470460933E+03   -0.82828E-03   -0.81378E-03 34800   0.125E-02-0.186E-03
CGA:   6    -0.192470689266E+03   -0.22833E-03   -0.22657E-03 34800   0.338E-03-0.245E-04
CGA:   7    -0.192470755903E+03   -0.66637E-04   -0.66923E-04 34800   0.106E-03 0.496E-05
CGA:   8    -0.192470780884E+03   -0.24981E-04   -0.25087E-04 34800   0.354E-04 0.449E-05
CGA:   9    -0.192470787975E+03   -0.70906E-05   -0.75354E-05 34800   0.109E-04 0.864E-05
   2 F= -.19247079E+03 E0= -.19247079E+03  d E =-.793673E-03  mag=    18.0000
       N       E                     dE             d eps       ncg     rms          ort
SDA:   1    -0.192457158465E+03    0.13622E-01    0.00000E+00 34800   0.394E-01 0.000E+00
CGA:   2    -0.192465625859E+03   -0.84674E-02   -0.84819E-02 34800   0.207E-01 0.318E-03
CGA:   3    -0.192469450214E+03   -0.38244E-02   -0.38470E-02 34800   0.505E-02 0.303E-03
CGA:   4    -0.192470340514E+03   -0.89030E-03   -0.88304E-03 34800   0.142E-02-0.935E-04
CGA:   5    -0.192470605634E+03   -0.26512E-03   -0.25829E-03 34800   0.447E-03-0.110E-03
CGA:   6    -0.192470682889E+03   -0.77255E-04   -0.76192E-04 34800   0.118E-03-0.180E-04
CGA:   7    -0.192470704907E+03   -0.22018E-04   -0.22170E-04 34800   0.348E-04 0.330E-05
CGA:   8    -0.192470713251E+03   -0.83437E-05   -0.83536E-05 34800   0.121E-04 0.172E-05
   3 F= -.19247071E+03 E0= -.19247071E+03  d E =-.718949E-03  mag=    18.0000
       N       E                     dE             d eps       ncg     rms          ort
SDA:   1    -0.192437137929E+03    0.33567E-01    0.00000E+00 34800   0.928E-01 0.000E+00
CGA:   2    -0.192458928016E+03   -0.21790E-01   -0.21791E-01 34800   0.516E-01 0.413E-03
CGA:   3    -0.192468105184E+03   -0.91772E-02   -0.91972E-02 34800   0.116E-01 0.310E-03
CGA:   4    -0.192470092377E+03   -0.19872E-02   -0.19783E-02 34800   0.300E-02-0.145E-03
CGA:   5    -0.192470638819E+03   -0.54644E-03   -0.54233E-03 34800   0.808E-03-0.897E-04
CGA:   6    -0.192470780198E+03   -0.14138E-03   -0.14231E-03 34800   0.199E-03 0.199E-04
CGA:   7    -0.192470824008E+03   -0.43810E-04   -0.43796E-04 34800   0.656E-04-0.140E-05
CGA:   8    -0.192470841814E+03   -0.17806E-04   -0.18666E-04 34800   0.338E-04-0.139E-04
CGA:   9    -0.192470847200E+03   -0.53856E-05   -0.54337E-05 34800   0.106E-04 0.203E-05
   4 F= -.19247085E+03 E0= -.19247085E+03  d E =-.133949E-03  mag=    18.0000
       N       E                     dE             d eps       ncg     rms          ort
SDA:   1    -0.192464239440E+03    0.66024E-02    0.00000E+00 34800   0.181E-01 0.000E+00
CGA:   2    -0.192468547996E+03   -0.43086E-02   -0.43091E-02 34800   0.103E-01-0.664E-04
CGA:   3    -0.192470381174E+03   -0.18332E-02   -0.18280E-02 34800   0.238E-02-0.110E-03
CGA:   4    -0.192470755720E+03   -0.37455E-03   -0.37819E-03 34800   0.562E-03 0.543E-04
CGA:   5    -0.192470854555E+03   -0.98836E-04   -0.10068E-03 34800   0.130E-03 0.381E-04
CGA:   6    -0.192470884788E+03   -0.30232E-04   -0.30209E-04 34800   0.409E-04-0.700E-05
CGA:   7    -0.192470891897E+03   -0.71096E-05   -0.72594E-05 34800   0.112E-04 0.450E-05
   5 F= -.19247089E+03 E0= -.19247089E+03  d E =-.178646E-03  mag=    18.0000
       N       E                     dE             d eps       ncg     rms          ort
SDA:   1    -0.192452325587E+03    0.18559E-01    0.00000E+00 34800   0.494E-01 0.000E+00
CGA:   2    -0.192465657352E+03   -0.13332E-01   -0.13334E-01 34800   0.266E-01-0.707E-04
CGA:   3    -0.192469940651E+03   -0.42833E-02   -0.42811E-02 34800   0.575E-02-0.410E-04
CGA:   4    -0.192470896147E+03   -0.95550E-03   -0.95566E-03 34800   0.154E-02 0.156E-05
CGA:   5    -0.192471157230E+03   -0.26108E-03   -0.26301E-03 34800   0.383E-03 0.438E-04
CGA:   6    -0.192471223336E+03   -0.66106E-04   -0.67670E-04 34800   0.939E-04 0.384E-04
CGA:   7    -0.192471244806E+03   -0.21470E-04   -0.21486E-04 34800   0.313E-04 0.617E-05
CGA:   8    -0.192471254377E+03   -0.95701E-05   -0.13522E-04 34800   0.377E-04-0.203E-04
   6 F= -.19247125E+03 E0= -.19247125E+03  d E =-.362479E-03  mag=    18.0000
       N       E                     dE             d eps       ncg     rms          ort
SDA:   1    -0.192469131804E+03    0.21130E-02    0.00000E+00 34800   0.549E-02 0.000E+00
CGA:   2    -0.192470618998E+03   -0.14872E-02   -0.14888E-02 34800   0.298E-02-0.320E-04
CGA:   3    -0.192471098046E+03   -0.47905E-03   -0.47812E-03 34800   0.627E-03-0.168E-04
CGA:   4    -0.192471198616E+03   -0.10057E-03   -0.10058E-03 34800   0.178E-03-0.671E-07
CGA:   5    -0.192471225680E+03   -0.27064E-04   -0.27817E-04 34800   0.466E-04 0.132E-04
CGA:   6    -0.192471231987E+03   -0.63073E-05   -0.70915E-05 34800   0.110E-04 0.114E-04
   7 F= -.19247123E+03 E0= -.19247123E+03  d E =-.340090E-03  mag=    18.0000
       N       E                     dE             d eps       ncg     rms          ort
SDA:   1    -0.192471010411E+03    0.21527E-03    0.00000E+00 34800   0.644E-03 0.000E+00
CGA:   2    -0.192471179061E+03   -0.16865E-03   -0.16744E-03 34800   0.331E-03 0.215E-04
CGA:   3    -0.192471233009E+03   -0.53948E-04   -0.54211E-04 34800   0.830E-04 0.538E-05
CGA:   4    -0.192471245083E+03   -0.12074E-04   -0.12067E-04 34800   0.220E-04-0.146E-06
CGA:   5    -0.192471249703E+03   -0.46200E-05   -0.46707E-05 34800   0.991E-05-0.469E-05
CGA:   6    -0.192471251263E+03   -0.15599E-05   -0.24194E-05 34800   0.130E-04-0.796E-05
   8 F= -.19247125E+03 E0= -.19247125E+03  d E =-.359366E-03  mag=    18.0000
       N       E                     dE             d eps       ncg     rms          ort
SDA:   1    -0.192471006912E+03    0.24279E-03    0.00000E+00 34800   0.688E-03 0.000E+00
CGA:   2    -0.192471184758E+03   -0.17785E-03   -0.17665E-03 34800   0.338E-03 0.216E-04
CGA:   3    -0.192471239294E+03   -0.54537E-04   -0.54957E-04 34800   0.778E-04 0.891E-05
CGA:   4    -0.192471253094E+03   -0.13800E-04   -0.13821E-04 34800   0.230E-04 0.717E-06
CGA:   5    -0.192471258055E+03   -0.49605E-05   -0.50892E-05 34800   0.122E-04-0.686E-05
CGA:   6    -0.192471259749E+03   -0.16944E-05   -0.24339E-05 34800   0.132E-04-0.892E-05
   9 F= -.19247126E+03 E0= -.19247126E+03  d E =-.367852E-03  mag=    18.0000
       N       E                     dE             d eps       ncg     rms          ort
SDA:   1    -0.192471223286E+03    0.34769E-04    0.00000E+00 34800   0.111E-03 0.000E+00
CGA:   2    -0.192471249755E+03   -0.26469E-04   -0.26115E-04 34800   0.457E-04 0.100E-04
CGA:   3    -0.192471257078E+03   -0.73229E-05   -0.75341E-05 34800   0.117E-04 0.414E-05
CGA:   4    -0.192471259290E+03   -0.22122E-05   -0.22329E-05 34800   0.408E-05 0.856E-06
CGA:   5    -0.192471260267E+03   -0.97668E-06   -0.12503E-05 34800   0.575E-05-0.314E-05
CGA:   6    -0.192471260963E+03   -0.69615E-06   -0.63479E-06 34800   0.799E-06-0.665E-06
  10 F= -.19247126E+03 E0= -.19247126E+03  d E =-.369066E-03  mag=    18.0000
       N       E                     dE             d eps       ncg     rms          ort
SDA:   1    -0.192471257922E+03    0.23443E-05    0.00000E+00 34800   0.104E-04 0.000E+00
CGA:   2    -0.192471259630E+03   -0.17074E-05   -0.17490E-05 34800   0.650E-05 0.119E-05
CGA:   3    -0.192471260572E+03   -0.94240E-06   -0.10194E-05 34800   0.180E-05 0.126E-05
CGA:   4    -0.192471260826E+03   -0.25393E-06   -0.28243E-06 34800   0.422E-06 0.424E-06
CGA:   5    -0.192471259706E+03    0.11202E-05   -0.61848E-06 34800   0.878E-05-0.174E-05
CGA:   6    -0.192471261223E+03   -0.15169E-05   -0.14164E-05 34800   0.233E-05-0.518E-06
  11 F= -.19247126E+03 E0= -.19247126E+03  d E =-.369326E-03  mag=    18.0000
       N       E                     dE             d eps       ncg     rms          ort
SDA:   1    -0.192471256574E+03    0.31317E-05    0.00000E+00 34800   0.151E-04 0.000E+00
CGA:   2    -0.192471259380E+03   -0.28059E-05   -0.30645E-05 34800   0.716E-05 0.194E-05
CGA:   3    -0.192471260434E+03   -0.10541E-05   -0.12410E-05 34800   0.139E-05 0.106E-05
CGA:   4    -0.192471260760E+03   -0.32551E-06   -0.33264E-06 34800   0.606E-06 0.623E-07
CGA:   5    -0.192471260637E+03    0.12269E-06   -0.40407E-06 34800   0.662E-05-0.163E-05
CGA:   6    -0.192471261272E+03   -0.63524E-06   -0.65642E-06 34800   0.710E-06 0.904E-07
  12 F= -.19247126E+03 E0= -.19247126E+03  d E =-.369375E-03  mag=    18.0000
       N       E                     dE             d eps       ncg     rms          ort
SDA:   1    -0.192471260208E+03    0.42875E-06    0.00000E+00 34800   0.400E-05 0.000E+00
CGA:   2    -0.192471260761E+03   -0.55260E-06   -0.67807E-06 34800   0.140E-05 0.889E-06
CGA:   3    -0.192471260915E+03   -0.15376E-06   -0.24600E-06 34800   0.406E-06 0.576E-06
CGA:   4    -0.192471260953E+03   -0.38624E-07   -0.77557E-07 34800   0.173E-06 0.242E-06
CGA:   5    -0.192471261068E+03   -0.11488E-06    0.16393E-06 34800   0.168E-06 0.297E-07
CGA:   6    -0.192471261251E+03   -0.18272E-06    0.46506E-07 34800   0.140E-06 0.331E-07
  13 F= -.19247126E+03 E0= -.19247126E+03  d E =-.369354E-03  mag=    18.0000
       N       E                     dE             d eps       ncg     rms          ort
SDA:   1    -0.192471261140E+03   -0.72165E-07    0.00000E+00 34800   0.167E-05 0.000E+00
CGA:   2    -0.192471261220E+03   -0.79492E-07   -0.14881E-06 34800   0.508E-06 0.329E-06
CGA:   3    -0.192471261209E+03    0.10621E-07   -0.55710E-07 34800   0.254E-06 0.336E-06
CGA:   4    -0.192471261212E+03   -0.30559E-08   -0.27391E-07 34800   0.132E-06 0.142E-06
CGA:   5    -0.192471261214E+03   -0.18717E-08   -0.16390E-07 34800   0.885E-07 0.993E-07
CGA:   6    -0.192471261225E+03   -0.10805E-07   -0.16153E-07 34800   0.619E-07 0.666E-07
  14 F= -.19247126E+03 E0= -.19247126E+03  d E =-.369328E-03  mag=    18.0000
