       N       E                     dE             d eps       ncg     rms          rms(c)
DAV:   1     0.173497762456E+04    0.17350E+04   -0.78190E+04128328   0.186E+03
DAV:   2     0.101058283410E+02   -0.17249E+04   -0.16076E+04133684   0.548E+02
DAV:   3    -0.191495865056E+03   -0.20160E+03   -0.19227E+03129572   0.200E+02
DAV:   4    -0.197892386228E+03   -0.63965E+01   -0.63689E+01128396   0.366E+01
DAV:   5    -0.197972822129E+03   -0.80436E-01   -0.80376E-01131672   0.432E+00    0.748E+00
DAV:   6    -0.160870471227E+03    0.37102E+02   -0.14971E+01127352   0.166E+01    0.995E+00
DAV:   7    -0.160758566625E+03    0.11190E+00   -0.26830E-01128112   0.302E+00    0.410E+00
DAV:   8    -0.160689748139E+03    0.68818E-01   -0.11223E-01127820   0.144E+00    0.246E+00
DAV:   9    -0.160672952367E+03    0.16796E-01   -0.12919E-02128052   0.565E-01    0.176E+00
DAV:  10    -0.160665245625E+03    0.77067E-02   -0.45873E-03127748   0.294E-01    0.144E+00
DAV:  11    -0.160657832182E+03    0.74134E-02   -0.62455E-03127920   0.358E-01    0.100E+00
DAV:  12    -0.160654781417E+03    0.30508E-02   -0.24284E-03127716   0.221E-01    0.736E-01
DAV:  13    -0.160652273820E+03    0.25076E-02   -0.29856E-03127744   0.248E-01    0.430E-01
DAV:  14    -0.160651030101E+03    0.12437E-02   -0.31687E-03127644   0.254E-01    0.120E-01
DAV:  15    -0.160650881586E+03    0.14851E-03   -0.35458E-04128056   0.851E-02    0.246E-02
DAV:  16    -0.160650863600E+03    0.17986E-04   -0.35535E-06 69260   0.994E-03    0.219E-02
DAV:  17    -0.160650856685E+03    0.69150E-05   -0.89842E-07 67788   0.536E-03
   1 F= -.16065086E+03 E0= -.16065086E+03  d E =-.160651E+03  mag=    -0.0000
