       N       E                     dE             d eps       ncg     rms          rms(c)
DAV:   1     0.764266377313E+03    0.76427E+03   -0.33140E+04100740   0.214E+03
DAV:   2     0.217947285510E+02   -0.74247E+03   -0.70189E+03103356   0.613E+02
DAV:   3    -0.706204792144E+02   -0.92415E+02   -0.90800E+02116694   0.216E+02
DAV:   4    -0.736924307931E+02   -0.30720E+01   -0.30119E+01110994   0.381E+01
DAV:   5    -0.737499059054E+02   -0.57475E-01   -0.56833E-01110499   0.554E+00    0.236E+01
DAV:   6    -0.576526331498E+02    0.16097E+02   -0.64425E+01118164   0.736E+01    0.308E+01
DAV:   7    -0.614948328857E+02   -0.38422E+01   -0.58981E+00103560   0.298E+01    0.164E+01
DAV:   8    -0.616104896887E+02   -0.11566E+00   -0.10896E+00111672   0.142E+01    0.108E+01
DAV:   9    -0.622411928117E+02   -0.63070E+00   -0.68676E-01115542   0.149E+01    0.229E+00
DAV:  10    -0.622982582284E+02   -0.57065E-01   -0.20726E-01105036   0.399E+00    0.690E-01
DAV:  11    -0.623022280545E+02   -0.39698E-02   -0.26952E-02116226   0.205E+00    0.344E-01
DAV:  12    -0.623049293677E+02   -0.27013E-02   -0.58295E-03110169   0.565E-01    0.256E-01
DAV:  13    -0.623069295537E+02   -0.20002E-02   -0.14084E-02107268   0.762E-01    0.213E-01
DAV:  14    -0.623081893876E+02   -0.12598E-02   -0.33148E-03124599   0.264E-01    0.166E-01
DAV:  15    -0.623082839074E+02   -0.94520E-04   -0.16655E-03108804   0.216E-01    0.723E-02
DAV:  16    -0.623081320765E+02    0.15183E-03   -0.50409E-03116610   0.304E-01    0.837E-02
DAV:  17    -0.623084770957E+02   -0.34502E-03   -0.12861E-03123228   0.143E-01    0.736E-02
DAV:  18    -0.623086667200E+02   -0.18962E-03   -0.11488E-04 95436   0.660E-02    0.269E-02
DAV:  19    -0.623086661460E+02    0.57397E-06   -0.27653E-05 58980   0.301E-02
   1 F= -.62308666E+02 E0= -.62308666E+02  d E =-.623087E+02  mag=    -0.0000
       N       E                     dE             d eps       ncg     rms          rms(c)
DAV:   1    -0.623186759457E+02   -0.10009E-01   -0.54976E-01 99264   0.632E+00    0.846E-01
DAV:   2    -0.623137940731E+02    0.48819E-02   -0.28800E-02101916   0.172E+00    0.574E-01
DAV:   3    -0.623109042357E+02    0.28898E-02   -0.20490E-03112410   0.436E-01    0.291E-01
DAV:   4    -0.623101793375E+02    0.72490E-03   -0.52990E-04111570   0.192E-01    0.116E-01
DAV:   5    -0.623104827527E+02   -0.30342E-03   -0.39656E-04118875   0.134E-01    0.297E-02
DAV:   6    -0.623102418012E+02    0.24095E-03   -0.32629E-05 67362   0.403E-02    0.151E-02
DAV:   7    -0.623102479397E+02   -0.61385E-05   -0.46629E-05 53946   0.296E-02
   2 F= -.62310248E+02 E0= -.62310248E+02  d E =-.158179E-02  mag=    -0.0000
