       N       E                     dE             d eps       ncg     rms          rms(c)
DAV:   1     0.939787531233E+03    0.93979E+03   -0.40817E+04113904   0.197E+03
DAV:   2     0.127324747440E+02   -0.92706E+03   -0.86933E+03122340   0.568E+02
DAV:   3    -0.989922472874E+02   -0.11172E+03   -0.10960E+03126861   0.211E+02
DAV:   4    -0.102034311275E+03   -0.30421E+01   -0.30366E+01124011   0.361E+01
DAV:   5    -0.102078959748E+03   -0.44648E-01   -0.44644E-01131793   0.481E+00    0.380E+01
DAV:   6    -0.730994935526E+02    0.28979E+02   -0.45150E+01137460   0.792E+01    0.419E+01
DAV:   7    -0.747883926765E+02   -0.16889E+01   -0.96093E+00115890   0.195E+01    0.275E+01
DAV:   8    -0.746780001830E+02    0.11039E+00   -0.26214E+00131655   0.170E+01    0.154E+01
DAV:   9    -0.745738173055E+02    0.10418E+00   -0.12462E+00133908   0.125E+01    0.442E+00
DAV:  10    -0.751020111268E+02   -0.52819E+00   -0.23948E-01119562   0.552E+00    0.406E-01
DAV:  11    -0.750995243596E+02    0.24868E-02   -0.15856E-02122550   0.115E+00    0.356E-01
DAV:  12    -0.751017220984E+02   -0.21977E-02   -0.23294E-03124074   0.504E-01    0.222E-01
DAV:  13    -0.751018738731E+02   -0.15177E-03   -0.34150E-03125874   0.363E-01    0.190E-01
DAV:  14    -0.751014541267E+02    0.41975E-03   -0.37009E-04120984   0.137E-01    0.687E-02
DAV:  15    -0.751015304733E+02   -0.76347E-04   -0.35069E-04120174   0.109E-01    0.779E-02
DAV:  16    -0.751015588077E+02   -0.28334E-04   -0.65932E-06 70464   0.219E-02    0.392E-02
DAV:  17    -0.751015767852E+02   -0.17977E-04   -0.43088E-06 64002   0.146E-02    0.107E-02
DAV:  18    -0.751015782063E+02   -0.14212E-05   -0.15528E-06 63552   0.808E-03
   1 F= -.75101578E+02 E0= -.75101578E+02  d E =-.751016E+02  mag=    -0.0000
