       N       E                     dE             d eps       ncg     rms          ort
DAV:   1     0.419794506901E+04    0.41979E+04   -0.19836E+05 22600   0.194E+03
DAV:   2     0.105542842917E+03   -0.40924E+04   -0.38177E+04 22600   0.545E+02
DAV:   3    -0.399135720079E+03   -0.50468E+03   -0.47149E+03 22600   0.205E+02
DAV:   4    -0.416939910352E+03   -0.17804E+02   -0.17683E+02 22600   0.402E+01
DAV:   5    -0.417169125157E+03   -0.22921E+00   -0.22893E+00 22600   0.464E+00
SDA:   6    -0.313999600392E+03    0.10317E+03   -0.22893E+00 22600   0.252E+02 0.000E+00
CGA:   7    -0.317880673172E+03   -0.38811E+01   -0.38894E+01 22600   0.255E+01 0.296E-01
CGA:   8    -0.318389407664E+03   -0.50873E+00   -0.50872E+00 22600   0.743E+00 0.613E-02
CGA:   9    -0.318525695898E+03   -0.13629E+00   -0.13633E+00 22600   0.287E+00 0.246E-02
CGA:  10    -0.318580568033E+03   -0.54872E-01   -0.54883E-01 22600   0.859E-01 0.148E-02
CGA:  11    -0.318603196502E+03   -0.22628E-01   -0.22600E-01 22600   0.402E-01 0.379E-03
CGA:  12    -0.318613394776E+03   -0.10198E-01   -0.10198E-01 22600   0.183E-01-0.288E-04
CGA:  13    -0.318618562705E+03   -0.51679E-02   -0.51665E-02 22600   0.665E-02 0.900E-05
CGA:  14    -0.318620276178E+03   -0.17135E-02   -0.17240E-02 22600   0.179E-02-0.201E-03
CGA:  15    -0.318620730828E+03   -0.45465E-03   -0.45573E-03 22600   0.405E-03-0.203E-04
CGA:  16    -0.318620834793E+03   -0.10397E-03   -0.10228E-03 22600   0.114E-03 0.383E-04
CGA:  17    -0.318620872359E+03   -0.37566E-04   -0.36497E-04 22600   0.441E-04 0.138E-04
CGA:  18    -0.318620888795E+03   -0.16436E-04   -0.15658E-04 22600   0.190E-04 0.789E-05
CGA:  19    -0.318620850621E+03    0.38175E-04   -0.21908E-04 22600   0.205E-03-0.586E-04
CGA:  20    -0.318620898967E+03   -0.48346E-04   -0.49689E-04 22600   0.244E-04 0.820E-05
CGA:  21    -0.318620906376E+03   -0.74094E-05   -0.77738E-05 22600   0.788E-05 0.396E-05
   1 F= -.31862091E+03 E0= -.31862091E+03  d E =-.318621E+03  mag=    -0.0000
