       N       E                     dE             d eps       ncg     rms          ort
DAV:   1     0.740365909126E+04    0.74037E+04   -0.37867E+05 23688   0.180E+03
DAV:   2     0.753691245410E+01   -0.73961E+04   -0.69405E+04 23688   0.506E+02
DAV:   3    -0.874875135172E+03   -0.88241E+03   -0.82522E+03 23688   0.191E+02
DAV:   4    -0.932990466965E+03   -0.58115E+02   -0.55430E+02 23688   0.441E+01
DAV:   5    -0.935608507093E+03   -0.26180E+01   -0.25655E+01 23688   0.904E+00
SDA:   6    -0.736116963185E+03    0.19949E+03   -0.25655E+01 23688   0.567E+02 0.000E+00
CGA:   7    -0.744365800221E+03   -0.82488E+01   -0.82478E+01 23688   0.576E+01-0.397E+00
CGA:   8    -0.745572599813E+03   -0.12068E+01   -0.12098E+01 23688   0.145E+01-0.214E+00
CGA:   9    -0.745936797868E+03   -0.36420E+00   -0.37144E+00 23688   0.496E+00-0.106E+00
CGA:  10    -0.746045914084E+03   -0.10912E+00   -0.11141E+00 23688   0.214E+00-0.553E-01
CGA:  11    -0.746099598730E+03   -0.53685E-01   -0.59446E-01 23688   0.120E+00-0.516E-01
CGA:  12    -0.746126400632E+03   -0.26802E-01   -0.36372E-01 23688   0.936E-01-0.490E-01
CGA:  13    -0.746138973848E+03   -0.12573E-01   -0.21948E-01 23688   0.663E-01-0.520E-01
CGA:  14    -0.746150572063E+03   -0.11598E-01   -0.11877E-01 23688   0.125E-01 0.578E-02
CGA:  15    -0.746153264634E+03   -0.26926E-02   -0.28040E-02 23688   0.458E-02 0.615E-02
CGA:  16    -0.746153764290E+03   -0.49966E-03   -0.89438E-03 23688   0.255E-02 0.422E-02
CGA:  17    -0.746153816564E+03   -0.52274E-04   -0.28413E-03 23688   0.189E-02 0.214E-02
CGA:  18    -0.746153803218E+03    0.13346E-04   -0.18420E-03 23688   0.155E-02 0.169E-02
CGA:  19    -0.746153763713E+03    0.39504E-04   -0.13303E-03 23688   0.131E-02 0.141E-02
CGA:  20    -0.746153712915E+03    0.50798E-04   -0.10091E-03 23688   0.114E-02 0.121E-02
CGA:  21    -0.746153657879E+03    0.55036E-04   -0.78897E-04 23688   0.100E-02 0.106E-02
CGA:  22    -0.746153602265E+03    0.55615E-04   -0.63066E-04 23688   0.892E-03 0.937E-03
CGA:  23    -0.746153547828E+03    0.54436E-04   -0.51247E-04 23688   0.803E-03 0.840E-03
CGA:  24    -0.746153495521E+03    0.52307E-04   -0.42240E-04 23688   0.730E-03 0.760E-03
CGA:  25    -0.746153445883E+03    0.49638E-04   -0.35271E-04 23688   0.668E-03 0.694E-03
CGA:  26    -0.746153399132E+03    0.46751E-04   -0.29785E-04 23688   0.616E-03 0.638E-03
CGA:  27    -0.746153355301E+03    0.43831E-04   -0.25402E-04 23688   0.571E-03 0.590E-03
CGA:  28    -0.746153314318E+03    0.40983E-04   -0.21854E-04 23688   0.533E-03 0.549E-03
CGA:  29    -0.746153276055E+03    0.38262E-04   -0.18946E-04 23688   0.499E-03 0.513E-03
CGA:  30    -0.746153240360E+03    0.35695E-04   -0.16537E-04 23688   0.470E-03 0.482E-03
CGA:  31    -0.746153207067E+03    0.33294E-04   -0.14521E-04 23688   0.444E-03 0.455E-03
CGA:  32    -0.746153176006E+03    0.31061E-04   -0.12819E-04 23688   0.421E-03 0.431E-03
CGA:  33    -0.746153147016E+03    0.28990E-04   -0.11372E-04 23688   0.400E-03 0.409E-03
CGA:  34    -0.746153119941E+03    0.27075E-04   -0.10133E-04 23688   0.382E-03 0.390E-03
CGA:  35    -0.746153094636E+03    0.25304E-04   -0.90668E-05 23688   0.365E-03 0.373E-03
CGA:  36    -0.746153070969E+03    0.23668E-04   -0.81435E-05 23688   0.351E-03 0.357E-03
CGA:  37    -0.746153048814E+03    0.22154E-04   -0.73404E-05 23688   0.337E-03 0.343E-03
CGA:  38    -0.746153028061E+03    0.20754E-04   -0.66392E-05 23688   0.325E-03 0.330E-03
CGA:  39    -0.746153008607E+03    0.19454E-04   -0.60246E-05 23688   0.314E-03 0.319E-03
CGA:  40    -0.746152990360E+03    0.18247E-04   -0.54835E-05 23688   0.304E-03 0.308E-03
CGA:  41    -0.746152973233E+03    0.17126E-04   -0.50051E-05 23688   0.294E-03 0.299E-03
CGA:  42    -0.746152957146E+03    0.16087E-04   -0.45802E-05 23688   0.286E-03 0.290E-03
CGA:  43    -0.746152942023E+03    0.15123E-04   -0.42014E-05 23688   0.278E-03 0.282E-03
CGA:  44    -0.746152927796E+03    0.14227E-04   -0.38627E-05 23688   0.271E-03 0.274E-03
CGA:  45    -0.746152914401E+03    0.13395E-04   -0.35589E-05 23688   0.264E-03 0.267E-03
CGA:  46    -0.746152901781E+03    0.12620E-04   -0.32856E-05 23688   0.258E-03 0.261E-03
CGA:  47    -0.746152889882E+03    0.11899E-04   -0.30390E-05 23688   0.252E-03 0.255E-03
CGA:  48    -0.746152878656E+03    0.11226E-04   -0.28159E-05 23688   0.247E-03 0.249E-03
CGA:  49    -0.746152868059E+03    0.10598E-04   -0.26136E-05 23688   0.242E-03 0.244E-03
CGA:  50    -0.746152858047E+03    0.10011E-04   -0.24297E-05 23688   0.238E-03 0.240E-03
CGA:  51    -0.746152848585E+03    0.94626E-05   -0.22621E-05 23688   0.233E-03 0.235E-03
   1 F= -.74615285E+03 E0= -.74615285E+03  d E =-.746153E+03  mag=     0.0000
