       N       E                     dE             d eps       ncg     rms          rms(c)
DAV:   1     0.742404763165E+03    0.74240E+03   -0.34046E+04110826   0.229E+03
DAV:   2     0.713587018609E+01   -0.73527E+03   -0.69338E+03113274   0.642E+02
DAV:   3    -0.721523941682E+02   -0.79288E+02   -0.78299E+02129492   0.202E+02
DAV:   4    -0.738939848782E+02   -0.17416E+01   -0.17397E+01115497   0.329E+01
DAV:   5    -0.739267282397E+02   -0.32743E-01   -0.32743E-01138978   0.418E+00    0.356E+00
DAV:   6    -0.609506575304E+02    0.12976E+02   -0.57385E+00109197   0.168E+01    0.399E+00
DAV:   7    -0.608911579633E+02    0.59500E-01   -0.13544E-01124011   0.287E+00    0.171E+00
DAV:   8    -0.608681193076E+02    0.23039E-01   -0.27024E-02113661   0.117E+00    0.125E+00
DAV:   9    -0.608566845340E+02    0.11435E-01   -0.10872E-02122013   0.764E-01    0.833E-01
DAV:  10    -0.608527934303E+02    0.38911E-02   -0.21581E-03118008   0.370E-01    0.648E-01
DAV:  11    -0.608507978403E+02    0.19956E-02   -0.99214E-04117495   0.250E-01    0.519E-01
DAV:  12    -0.608487744305E+02    0.20234E-02   -0.16923E-03115038   0.317E-01    0.352E-01
DAV:  13    -0.608477239585E+02    0.10505E-02   -0.90548E-04120573   0.229E-01    0.233E-01
DAV:  14    -0.608469175148E+02    0.80644E-03   -0.16524E-03112005   0.317E-01    0.669E-02
DAV:  15    -0.608468120045E+02    0.10551E-03   -0.20607E-04125379   0.110E-01    0.166E-02
DAV:  16    -0.608467891923E+02    0.22812E-04   -0.32968E-06 61029   0.157E-02    0.122E-02
DAV:  17    -0.608467832522E+02    0.59401E-05   -0.10529E-06 54720   0.989E-03
   1 F= -.60846783E+02 E0= -.60846783E+02  d E =-.608468E+02  mag=    -0.0000
