       N       E                     dE             d eps       ncg     rms          rms(c)
DAV:   1     0.725999243348E+03    0.72600E+03   -0.33340E+04100593   0.216E+03
DAV:   2     0.200058004652E+02   -0.70599E+03   -0.66858E+03103227   0.607E+02
DAV:   3    -0.654556879019E+02   -0.85461E+02   -0.82556E+02111285   0.205E+02
DAV:   4    -0.682928958947E+02   -0.28372E+01   -0.28268E+01109602   0.400E+01
DAV:   5    -0.683377512100E+02   -0.44855E-01   -0.44837E-01115713   0.547E+00    0.501E+00
DAV:   6    -0.541014650392E+02    0.14236E+02   -0.81501E+00111276   0.206E+01    0.650E+00
DAV:   7    -0.540453467068E+02    0.56118E-01   -0.21783E-01102579   0.376E+00    0.251E+00
DAV:   8    -0.540143188455E+02    0.31028E-01   -0.47008E-02113196   0.155E+00    0.176E+00
DAV:   9    -0.540012291821E+02    0.13090E-01   -0.14686E-02110232   0.922E-01    0.116E+00
DAV:  10    -0.539971672848E+02    0.40619E-02   -0.29293E-03113388   0.443E-01    0.909E-01
DAV:  11    -0.539936219518E+02    0.35453E-02   -0.37740E-03110388   0.496E-01    0.610E-01
DAV:  12    -0.539923644657E+02    0.12575E-02   -0.10498E-03113922   0.248E-01    0.461E-01
DAV:  13    -0.539910945437E+02    0.12699E-02   -0.23453E-03109902   0.386E-01    0.226E-01
DAV:  14    -0.539907280005E+02    0.36654E-03   -0.11315E-03113148   0.267E-01    0.663E-02
DAV:  15    -0.539906901171E+02    0.37883E-04   -0.13338E-04112914   0.893E-02    0.165E-02
DAV:  16    -0.539906887704E+02    0.13468E-05   -0.22658E-06 54882   0.134E-02
   1 F= -.53990689E+02 E0= -.53990689E+02  d E =-.539907E+02  mag=     0.0000
       N       E                     dE             d eps       ncg     rms          rms(c)
DAV:   1    -0.540037334754E+02   -0.13043E-01   -0.32778E-01103356   0.584E+00    0.976E-01
DAV:   2    -0.539916966409E+02    0.12037E-01   -0.39865E-02103812   0.190E+00    0.584E-01
DAV:   3    -0.539912746786E+02    0.42196E-03   -0.31163E-03111420   0.585E-01    0.271E-01
DAV:   4    -0.539909878282E+02    0.28685E-03   -0.24150E-04111504   0.138E-01    0.151E-01
DAV:   5    -0.539908529881E+02    0.13484E-03   -0.24984E-04110358   0.103E-01    0.295E-02
DAV:   6    -0.539908588588E+02   -0.58707E-05   -0.19017E-05 66477   0.355E-02
   2 F= -.53990859E+02 E0= -.53990859E+02  d E =-.170088E-03  mag=    -0.0000
       N       E                     dE             d eps       ncg     rms          rms(c)
DAV:   1    -0.539934206001E+02   -0.25676E-02   -0.64395E-02103476   0.258E+00    0.430E-01
DAV:   2    -0.539911593685E+02    0.22612E-02   -0.78461E-03103962   0.835E-01    0.254E-01
DAV:   3    -0.539909418501E+02    0.21752E-03   -0.61544E-04111186   0.259E-01    0.120E-01
DAV:   4    -0.539909120577E+02    0.29792E-04   -0.41977E-05 97356   0.595E-02    0.662E-02
DAV:   5    -0.539909043296E+02    0.77280E-05   -0.35531E-05 79788   0.467E-02    0.120E-02
DAV:   6    -0.539909058510E+02   -0.15214E-05   -0.40883E-06 51312   0.197E-02
   3 F= -.53990906E+02 E0= -.53990906E+02  d E =-.217081E-03  mag=    -0.0000
