       N       E                     dE             d eps       ncg     rms          rms(c)
DAV:   1     0.804191241504E+03    0.80419E+03   -0.36225E+04112104   0.157E+03
DAV:   2    -0.281843676962E+02   -0.83238E+03   -0.81326E+03137076   0.483E+02
DAV:   3    -0.930303344080E+02   -0.64846E+02   -0.64121E+02127458   0.148E+02
DAV:   4    -0.946301005602E+02   -0.15998E+01   -0.15911E+01140022   0.267E+01
DAV:   5    -0.946666321366E+02   -0.36532E-01   -0.36489E-01131946   0.391E+00    0.312E+01
DAV:   6    -0.669038218068E+02    0.27763E+02   -0.45470E+01136842   0.545E+01    0.130E+01
DAV:   7    -0.688971368763E+02   -0.19933E+01   -0.54535E+00147552   0.160E+01    0.942E+00
DAV:   8    -0.695542939220E+02   -0.65716E+00   -0.53297E-01148182   0.594E+00    0.571E+00
DAV:   9    -0.698024711043E+02   -0.24818E+00   -0.40327E-01149766   0.409E+00    0.201E+00
DAV:  10    -0.698405831756E+02   -0.38112E-01   -0.34553E-02146940   0.132E+00    0.749E-01
DAV:  11    -0.698448435842E+02   -0.42604E-02   -0.91249E-03135324   0.589E-01    0.472E-01
DAV:  12    -0.698488412145E+02   -0.39976E-02   -0.11364E-02146328   0.402E-01    0.268E-01
DAV:  13    -0.698506463823E+02   -0.18052E-02   -0.72436E-03162894   0.266E-01    0.210E-01
DAV:  14    -0.698519632932E+02   -0.13169E-02   -0.63280E-03160686   0.216E-01    0.194E-01
DAV:  15    -0.698549347593E+02   -0.29715E-02   -0.36850E-02161712   0.514E-01    0.187E-01
DAV:  16    -0.698567517226E+02   -0.18170E-02   -0.11259E-02155130   0.290E-01    0.185E-01
DAV:  17    -0.698552931843E+02    0.14585E-02   -0.72731E-03152904   0.259E-01    0.182E-01
DAV:  18    -0.698462021639E+02    0.90910E-02   -0.17595E-01160062   0.113E+00    0.198E-01
DAV:  19    -0.698462388838E+02   -0.36720E-04   -0.15348E-02147948   0.381E-01    0.194E-01
DAV:  20    -0.698481665777E+02   -0.19277E-02   -0.67755E-03150024   0.262E-01    0.193E-01
DAV:  21    -0.698486751020E+02   -0.50852E-03   -0.17790E-03155070   0.114E-01    0.206E-01
DAV:  22    -0.698379968960E+02    0.10678E-01   -0.26153E-01153540   0.132E+00    0.222E-01
DAV:  23    -0.698374281792E+02    0.56872E-03   -0.51117E-02151974   0.589E-01    0.205E-01
DAV:  24    -0.698383263524E+02   -0.89817E-03   -0.10359E-03116202   0.158E-01    0.195E-01
DAV:  25    -0.698381498668E+02    0.17649E-03   -0.30882E-03143982   0.135E-01    0.181E-01
DAV:  26    -0.698372404100E+02    0.90946E-03   -0.48948E-02159378   0.609E-01    0.154E-01
DAV:  27    -0.698380439846E+02   -0.80357E-03   -0.13593E-02145884   0.370E-01    0.167E-01
DAV:  28    -0.698404013245E+02   -0.23573E-02   -0.35077E-02155664   0.521E-01    0.133E-01
DAV:  29    -0.698399385960E+02    0.46273E-03   -0.14782E-02156066   0.434E-01    0.162E-01
DAV:  30    -0.698350374293E+02    0.49012E-02   -0.10067E-01155592   0.782E-01    0.259E-01
DAV:  31    -0.698372674418E+02   -0.22300E-02   -0.54990E-03142680   0.285E-01    0.238E-01
DAV:  32    -0.698378063500E+02   -0.53891E-03   -0.52789E-03156504   0.183E-01    0.234E-01
DAV:  33    -0.698342274759E+02    0.35789E-02   -0.82792E-01152124   0.225E+00    0.346E-01
DAV:  34    -0.698165314453E+02    0.17696E-01   -0.17588E+00155472   0.337E+00    0.896E-01
DAV:  35    -0.698586364827E+02   -0.42105E-01   -0.20287E-01147822   0.177E+00    0.276E-01
DAV:  36    -0.698630727297E+02   -0.44362E-02   -0.13478E-01158640   0.101E+00    0.331E-01
DAV:  37    -0.698609543917E+02    0.21183E-02   -0.20586E-01158388   0.119E+00    0.559E-01
DAV:  38    -0.698666073751E+02   -0.56530E-02   -0.39587E-03114162   0.385E-01    0.458E-01
DAV:  39    -0.698667260115E+02   -0.11864E-03   -0.35936E-04134586   0.720E-02    0.462E-01
DAV:  40    -0.698673916507E+02   -0.66564E-03   -0.10764E-03141786   0.847E-02    0.457E-01
DAV:  41    -0.698711839214E+02   -0.37923E-02   -0.13370E-03153864   0.168E-01    0.343E-01
DAV:  42    -0.698691418691E+02    0.20421E-02   -0.16141E-02156852   0.341E-01    0.335E-01
DAV:  43    -0.698667885456E+02    0.23533E-02   -0.22698E-02157776   0.390E-01    0.326E-01
DAV:  44    -0.698630197089E+02    0.37688E-02   -0.21479E-02158070   0.385E-01    0.378E-01
DAV:  45    -0.698611344215E+02    0.18853E-02   -0.36810E-03155676   0.176E-01    0.418E-01
DAV:  46    -0.698594421981E+02    0.16922E-02   -0.59286E-03158436   0.199E-01    0.433E-01
DAV:  47    -0.698606444015E+02   -0.12022E-02   -0.42983E-03151422   0.199E-01    0.432E-01
DAV:  48    -0.698623792528E+02   -0.17349E-02   -0.12603E-02165414   0.309E-01    0.430E-01
DAV:  49    -0.698621673621E+02    0.21189E-03   -0.18555E-04112086   0.848E-02    0.434E-01
DAV:  50    -0.698612632763E+02    0.90409E-03   -0.31765E-03157242   0.160E-01    0.451E-01
DAV:  51    -0.698609562944E+02    0.30698E-03   -0.34229E-02153888   0.475E-01    0.538E-01
DAV:  52    -0.698583439455E+02    0.26123E-02   -0.76360E-02162342   0.797E-01    0.668E-01
DAV:  53    -0.698616397144E+02   -0.32958E-02   -0.47905E-02154104   0.559E-01    0.639E-01
DAV:  54    -0.698626791460E+02   -0.10394E-02   -0.11510E-03117600   0.183E-01    0.632E-01
DAV:  55    -0.698652093324E+02   -0.25302E-02   -0.40148E-02153330   0.512E-01    0.612E-01
DAV:  56    -0.698790352953E+02   -0.13826E-01   -0.63651E-02157290   0.784E-01    0.309E-01
DAV:  57    -0.698844320643E+02   -0.53968E-02   -0.11440E-01159960   0.912E-01    0.236E-01
DAV:  58    -0.698867048322E+02   -0.22728E-02   -0.69758E-03134520   0.316E-01    0.214E-01
DAV:  59    -0.698891596326E+02   -0.24548E-02   -0.56397E-02154320   0.612E-01    0.183E-01
DAV:  60    -0.698911344498E+02   -0.19748E-02   -0.72773E-03152454   0.299E-01    0.130E-01
DAV:  61    -0.698924477981E+02   -0.13133E-02   -0.44412E-02163674   0.585E-01    0.181E-01
DAV:  62    -0.698925968878E+02   -0.14909E-03   -0.14538E-02156708   0.398E-01    0.245E-01
DAV:  63    -0.698934195943E+02   -0.82271E-03   -0.76957E-03152736   0.357E-01    0.131E-01
DAV:  64    -0.698939636331E+02   -0.54404E-03   -0.60899E-03157446   0.250E-01    0.166E-01
DAV:  65    -0.698933214457E+02    0.64219E-03   -0.41950E-03153420   0.226E-01    0.152E-01
DAV:  66    -0.698948222405E+02   -0.15008E-02   -0.35926E-02158220   0.566E-01    0.169E-01
DAV:  67    -0.698955140144E+02   -0.69177E-03   -0.10429E-03136416   0.139E-01    0.135E-01
DAV:  68    -0.698960056432E+02   -0.49163E-03   -0.20554E-03153888   0.121E-01    0.125E-01
DAV:  69    -0.698965738305E+02   -0.56819E-03   -0.27872E-03154842   0.142E-01    0.114E-01
DAV:  70    -0.698972073397E+02   -0.63351E-03   -0.80089E-03165858   0.247E-01    0.134E-01
DAV:  71    -0.698978289145E+02   -0.62157E-03   -0.32432E-03159048   0.165E-01    0.123E-01
DAV:  72    -0.698977907774E+02    0.38137E-04   -0.48077E-04131754   0.800E-02    0.116E-01
DAV:  73    -0.698977822363E+02    0.85411E-05   -0.26618E-04105324   0.503E-02    0.108E-01
DAV:  74    -0.698976420664E+02    0.14017E-03   -0.14570E-04 95424   0.364E-02    0.108E-01
DAV:  75    -0.698976411654E+02    0.90097E-06   -0.47424E-06 64284   0.117E-02
   1 F= -.69897641E+02 E0= -.69897641E+02  d E =-.698976E+02  mag=     0.0000
       N       E                     dE             d eps       ncg     rms          rms(c)
DAV:   1    -0.699017817450E+02   -0.41397E-02   -0.85711E-01111888   0.592E+00    0.560E-01
DAV:   2    -0.699017940208E+02   -0.12276E-04   -0.23387E-02125856   0.112E+00    0.371E-01
DAV:   3    -0.699011876198E+02    0.60640E-03   -0.55996E-03144126   0.502E-01    0.213E-01
DAV:   4    -0.699018180192E+02   -0.63040E-03   -0.23854E-03153414   0.268E-01    0.122E-01
DAV:   5    -0.699020968248E+02   -0.27881E-03   -0.92796E-04160032   0.126E-01    0.921E-02
DAV:   6    -0.699024062686E+02   -0.30944E-03   -0.16335E-03145332   0.104E-01    0.785E-02
DAV:   7    -0.699026981219E+02   -0.29185E-03   -0.21343E-03149100   0.121E-01    0.720E-02
DAV:   8    -0.699033056491E+02   -0.60753E-03   -0.15682E-02149352   0.305E-01    0.658E-02
DAV:   9    -0.699037804830E+02   -0.47483E-03   -0.85710E-03147006   0.216E-01    0.589E-02
DAV:  10    -0.699041864896E+02   -0.40601E-03   -0.25711E-02146166   0.366E-01    0.581E-02
DAV:  11    -0.699045772134E+02   -0.39072E-03   -0.11282E-02152154   0.266E-01    0.441E-02
DAV:  12    -0.699048135127E+02   -0.23630E-03   -0.57859E-03155310   0.189E-01    0.313E-02
DAV:  13    -0.699049041445E+02   -0.90632E-04   -0.48585E-03146190   0.157E-01    0.280E-02
DAV:  14    -0.699049993135E+02   -0.95169E-04   -0.26771E-04131346   0.568E-02    0.160E-02
DAV:  15    -0.699050140479E+02   -0.14734E-04   -0.19746E-03146004   0.108E-01    0.166E-02
DAV:  16    -0.699050442519E+02   -0.30204E-04   -0.10330E-04114618   0.381E-02    0.112E-02
DAV:  17    -0.699050544447E+02   -0.10193E-04   -0.24703E-04 80214   0.417E-02    0.990E-03
DAV:  18    -0.699050628789E+02   -0.84342E-05   -0.11159E-04106518   0.303E-02    0.966E-03
DAV:  19    -0.699050683711E+02   -0.54922E-05   -0.28072E-05 60180   0.162E-02
   2 F= -.69905068E+02 E0= -.69905068E+02  d E =-.742721E-02  mag=     0.0000
       N       E                     dE             d eps       ncg     rms          rms(c)
DAV:   1    -0.699051405121E+02   -0.77633E-04   -0.14468E-03112488   0.231E-01    0.209E-02
DAV:   2    -0.699051426088E+02   -0.20967E-05   -0.34322E-05103842   0.432E-02    0.142E-02
DAV:   3    -0.699051409864E+02    0.16224E-05   -0.13393E-05 57006   0.193E-02    0.890E-03
DAV:   4    -0.699051430319E+02   -0.20454E-05   -0.71919E-06 56388   0.104E-02    0.705E-03
DAV:   5    -0.699051446468E+02   -0.16150E-05   -0.38066E-06 56076   0.633E-03    0.611E-03
DAV:   6    -0.699051462835E+02   -0.16367E-05   -0.71949E-06 56082   0.679E-03
   3 F= -.69905146E+02 E0= -.69905146E+02  d E =-.750512E-02  mag=     0.0000
       N       E                     dE             d eps       ncg     rms          rms(c)
DAV:   1    -0.699057140049E+02   -0.56936E-03   -0.78631E-02111888   0.180E+00    0.153E-01
DAV:   2    -0.699056092409E+02    0.10476E-03   -0.17648E-03123582   0.314E-01    0.959E-02
DAV:   3    -0.699054906824E+02    0.11856E-03   -0.22184E-04137604   0.137E-01    0.376E-02
DAV:   4    -0.699055100103E+02   -0.19328E-04   -0.65441E-05116130   0.512E-02    0.189E-02
DAV:   5    -0.699055130471E+02   -0.30368E-05   -0.20063E-05 60264   0.293E-02    0.128E-02
DAV:   6    -0.699055200018E+02   -0.69548E-05   -0.16271E-05 57732   0.157E-02
   4 F= -.69905520E+02 E0= -.69905520E+02  d E =-.787884E-02  mag=     0.0000
       N       E                     dE             d eps       ncg     rms          rms(c)
DAV:   1    -0.699057899009E+02   -0.27685E-03   -0.56652E-02111888   0.153E+00    0.129E-01
DAV:   2    -0.699057186138E+02    0.71287E-04   -0.12707E-03123516   0.266E-01    0.809E-02
DAV:   3    -0.699056378799E+02    0.80734E-04   -0.19759E-04139374   0.117E-01    0.325E-02
DAV:   4    -0.699056585327E+02   -0.20653E-04   -0.69663E-05102840   0.451E-02    0.202E-02
DAV:   5    -0.699056639862E+02   -0.54535E-05   -0.25089E-05 70824   0.265E-02    0.159E-02
DAV:   6    -0.699056730997E+02   -0.91134E-05   -0.25197E-05 61146   0.162E-02
   5 F= -.69905673E+02 E0= -.69905673E+02  d E =-.803193E-02  mag=     0.0000
       N       E                     dE             d eps       ncg     rms          rms(c)
DAV:   1    -0.699073244656E+02   -0.16605E-02   -0.35049E-01111888   0.377E+00    0.293E-01
DAV:   2    -0.699070036910E+02    0.32077E-03   -0.78781E-03112092   0.621E-01    0.168E-01
DAV:   3    -0.699068265131E+02    0.17718E-03   -0.67404E-04135744   0.227E-01    0.713E-02
DAV:   4    -0.699067990580E+02    0.27455E-04   -0.13352E-04136326   0.788E-02    0.338E-02
DAV:   5    -0.699068088752E+02   -0.98172E-05   -0.48181E-05 81828   0.429E-02    0.204E-02
DAV:   6    -0.699068137557E+02   -0.48805E-05   -0.29348E-05 66492   0.209E-02
   6 F= -.69906814E+02 E0= -.69906814E+02  d E =-.114066E-02  mag=     0.0000
       N       E                     dE             d eps       ncg     rms          rms(c)
DAV:   1    -0.699075739230E+02   -0.76505E-03   -0.19327E-01111888   0.280E+00    0.217E-01
DAV:   2    -0.699073947019E+02    0.17922E-03   -0.43418E-03112296   0.461E-01    0.124E-01
DAV:   3    -0.699073151287E+02    0.79573E-04   -0.39881E-04136746   0.168E-01    0.529E-02
DAV:   4    -0.699073006755E+02    0.14453E-04   -0.95812E-05135792   0.594E-02    0.274E-02
DAV:   5    -0.699073099304E+02   -0.92549E-05   -0.39438E-05 66726   0.331E-02    0.189E-02
DAV:   6    -0.699073153125E+02   -0.53821E-05   -0.31451E-05 72240   0.183E-02
   7 F= -.69907315E+02 E0= -.69907315E+02  d E =-.164221E-02  mag=     0.0000
       N       E                     dE             d eps       ncg     rms          rms(c)
DAV:   1    -0.699086072848E+02   -0.12974E-02   -0.77305E-01111888   0.560E+00    0.435E-01
DAV:   2    -0.699078520249E+02    0.75526E-03   -0.17315E-02112200   0.921E-01    0.248E-01
DAV:   3    -0.699074115686E+02    0.44046E-03   -0.14468E-03135360   0.333E-01    0.102E-01
DAV:   4    -0.699073648731E+02    0.46696E-04   -0.29904E-04141648   0.115E-01    0.490E-02
DAV:   5    -0.699073896629E+02   -0.24790E-04   -0.11028E-04139524   0.620E-02    0.292E-02
DAV:   6    -0.699074023828E+02   -0.12720E-04   -0.55845E-05 62208   0.272E-02    0.229E-02
DAV:   7    -0.699074198334E+02   -0.17451E-04   -0.13059E-04 79188   0.337E-02    0.206E-02
DAV:   8    -0.699074397271E+02   -0.19894E-04   -0.13430E-04 92268   0.310E-02    0.188E-02
DAV:   9    -0.699074614891E+02   -0.21762E-04   -0.18734E-04 79716   0.383E-02    0.176E-02
DAV:  10    -0.699074944159E+02   -0.32927E-04   -0.68018E-04140022   0.706E-02    0.171E-02
DAV:  11    -0.699075178027E+02   -0.23387E-04   -0.27234E-04 99576   0.453E-02    0.152E-02
DAV:  12    -0.699075502527E+02   -0.32450E-04   -0.16167E-03145848   0.107E-01    0.158E-02
DAV:  13    -0.699075649126E+02   -0.14660E-04   -0.35480E-03156084   0.160E-01    0.170E-02
DAV:  14    -0.699076113120E+02   -0.46399E-04   -0.31299E-04133224   0.575E-02    0.101E-02
DAV:  15    -0.699076207569E+02   -0.94449E-05   -0.53266E-04103968   0.628E-02    0.818E-03
DAV:  16    -0.699076280607E+02   -0.73038E-05   -0.30304E-04122052   0.482E-02    0.605E-03
DAV:  17    -0.699076329763E+02   -0.49157E-05   -0.72175E-05 83994   0.244E-02
   8 F= -.69907633E+02 E0= -.69907633E+02  d E =-.195988E-02  mag=     0.0000
       N       E                     dE             d eps       ncg     rms          rms(c)
DAV:   1    -0.699093598072E+02   -0.17317E-02   -0.57408E-01111888   0.471E+00    0.294E-01
DAV:   2    -0.699095328958E+02   -0.17309E-03   -0.13271E-02113430   0.780E-01    0.179E-01
DAV:   3    -0.699093351409E+02    0.19775E-03   -0.57687E-04144648   0.211E-01    0.807E-02
DAV:   4    -0.699092953492E+02    0.39792E-04   -0.22695E-04137580   0.891E-02    0.365E-02
DAV:   5    -0.699093110756E+02   -0.15726E-04   -0.55973E-05 92118   0.433E-02    0.214E-02
DAV:   6    -0.699093181324E+02   -0.70568E-05   -0.38745E-05 64794   0.223E-02
   9 F= -.69909318E+02 E0= -.69909318E+02  d E =-.168516E-02  mag=     0.0000
       N       E                     dE             d eps       ncg     rms          rms(c)
DAV:   1    -0.699102651088E+02   -0.95403E-03   -0.95243E-01111888   0.606E+00    0.379E-01
DAV:   2    -0.699105411536E+02   -0.27604E-03   -0.22105E-02113574   0.100E+00    0.229E-01
DAV:   3    -0.699102255400E+02    0.31561E-03   -0.10750E-03148182   0.273E-01    0.104E-01
DAV:   4    -0.699102003445E+02    0.25196E-04   -0.55311E-04141438   0.118E-01    0.535E-02
DAV:   5    -0.699102439686E+02   -0.43624E-04   -0.15527E-04131610   0.594E-02    0.377E-02
DAV:   6    -0.699102754419E+02   -0.31473E-04   -0.13077E-04 70884   0.335E-02    0.343E-02
DAV:   7    -0.699103359874E+02   -0.60546E-04   -0.55784E-04129360   0.609E-02    0.306E-02
DAV:   8    -0.699103982088E+02   -0.62221E-04   -0.67462E-04142602   0.664E-02    0.277E-02
DAV:   9    -0.699104608566E+02   -0.62648E-04   -0.87173E-04134460   0.791E-02    0.259E-02
DAV:  10    -0.699105378798E+02   -0.77023E-04   -0.25965E-03155898   0.133E-01    0.248E-02
DAV:  11    -0.699105977176E+02   -0.59838E-04   -0.83633E-04139326   0.762E-02    0.208E-02
DAV:  12    -0.699106414628E+02   -0.43745E-04   -0.53446E-03157896   0.188E-01    0.223E-02
DAV:  13    -0.699106956467E+02   -0.54184E-04   -0.21849E-03153126   0.125E-01    0.173E-02
DAV:  14    -0.699107300901E+02   -0.34443E-04   -0.91035E-04149610   0.835E-02    0.113E-02
DAV:  15    -0.699107434747E+02   -0.13385E-04   -0.75514E-04132324   0.732E-02    0.880E-03
DAV:  16    -0.699107562419E+02   -0.12767E-04   -0.46027E-05 92100   0.271E-02    0.530E-03
DAV:  17    -0.699107587815E+02   -0.25396E-05   -0.19253E-05 56514   0.153E-02
  10 F= -.69910759E+02 E0= -.69910759E+02  d E =-.312581E-02  mag=     0.0000
       N       E                     dE             d eps       ncg     rms          rms(c)
DAV:   1    -0.699100413305E+02    0.71491E-03   -0.38067E+00111888   0.121E+01    0.764E-01
DAV:   2    -0.699107445701E+02   -0.70324E-03   -0.89433E-02113604   0.202E+00    0.460E-01
DAV:   3    -0.699092705264E+02    0.14740E-02   -0.37371E-03147750   0.548E-01    0.210E-01
DAV:   4    -0.699090804323E+02    0.19009E-03   -0.15298E-03137946   0.240E-01    0.925E-02
DAV:   5    -0.699091793789E+02   -0.98947E-04   -0.36077E-04144018   0.115E-01    0.550E-02
DAV:   6    -0.699092363684E+02   -0.56990E-04   -0.21974E-04108732   0.522E-02    0.447E-02
DAV:   7    -0.699093149808E+02   -0.78612E-04   -0.59753E-04141630   0.731E-02    0.381E-02
DAV:   8    -0.699093888563E+02   -0.73876E-04   -0.61926E-04139020   0.704E-02    0.332E-02
DAV:   9    -0.699094562402E+02   -0.67384E-04   -0.67300E-04138324   0.802E-02    0.306E-02
DAV:  10    -0.699095540920E+02   -0.97852E-04   -0.22403E-03153228   0.132E-01    0.291E-02
DAV:  11    -0.699096231054E+02   -0.69013E-04   -0.80428E-04144900   0.792E-02    0.255E-02
DAV:  12    -0.699096976876E+02   -0.74582E-04   -0.75444E-03160416   0.235E-01    0.272E-02
DAV:  13    -0.699097794963E+02   -0.81809E-04   -0.38603E-03154170   0.168E-01    0.230E-02
DAV:  14    -0.699098275927E+02   -0.48096E-04   -0.33538E-03165876   0.156E-01    0.174E-02
DAV:  15    -0.699098735401E+02   -0.45947E-04   -0.87331E-04157854   0.813E-02    0.112E-02
DAV:  16    -0.699098883398E+02   -0.14800E-04   -0.42920E-04100512   0.553E-02    0.756E-03
DAV:  17    -0.699098974875E+02   -0.91477E-05   -0.23128E-05 87018   0.245E-02
  11 F= -.69909897E+02 E0= -.69909897E+02  d E =-.226451E-02  mag=     0.0000
       N       E                     dE             d eps       ncg     rms          rms(c)
DAV:   1    -0.699103931320E+02   -0.50479E-03   -0.18111E+00111888   0.837E+00    0.521E-01
DAV:   2    -0.699114840329E+02   -0.10909E-02   -0.41661E-02113538   0.139E+00    0.318E-01
DAV:   3    -0.699106425575E+02    0.84148E-03   -0.19116E-03142116   0.374E-01    0.142E-01
DAV:   4    -0.699106324833E+02    0.10074E-04   -0.64324E-04137574   0.158E-01    0.652E-02
DAV:   5    -0.699106757281E+02   -0.43245E-04   -0.15954E-04140358   0.756E-02    0.366E-02
DAV:   6    -0.699107114843E+02   -0.35756E-04   -0.96562E-05 66210   0.337E-02    0.295E-02
DAV:   7    -0.699107486274E+02   -0.37143E-04   -0.19633E-04112710   0.389E-02    0.252E-02
DAV:   8    -0.699107808638E+02   -0.32236E-04   -0.26526E-04114306   0.428E-02    0.215E-02
DAV:   9    -0.699108060374E+02   -0.25174E-04   -0.21354E-04 92436   0.405E-02    0.204E-02
DAV:  10    -0.699108439017E+02   -0.37864E-04   -0.69622E-04130410   0.698E-02    0.190E-02
DAV:  11    -0.699108731340E+02   -0.29232E-04   -0.33929E-04128910   0.483E-02    0.175E-02
DAV:  12    -0.699109108176E+02   -0.37684E-04   -0.16946E-03137928   0.106E-01    0.171E-02
DAV:  13    -0.699109375984E+02   -0.26781E-04   -0.31871E-03155376   0.147E-01    0.178E-02
DAV:  14    -0.699109816315E+02   -0.44033E-04   -0.55147E-04138312   0.690E-02    0.115E-02
DAV:  15    -0.699109904066E+02   -0.87751E-05   -0.11783E-03142566   0.907E-02    0.101E-02
DAV:  16    -0.699110032819E+02   -0.12875E-04   -0.31820E-04118554   0.499E-02    0.649E-03
DAV:  17    -0.699110092604E+02   -0.59785E-05   -0.57112E-05 76644   0.236E-02
  12 F= -.69911009E+02 E0= -.69911009E+02  d E =-.337628E-02  mag=     0.0000
       N       E                     dE             d eps       ncg     rms          rms(c)
DAV:   1    -0.699116439197E+02   -0.64064E-03   -0.11612E-01111888   0.213E+00    0.158E-01
DAV:   2    -0.699115694043E+02    0.74515E-04   -0.26864E-03115164   0.371E-01    0.991E-02
DAV:   3    -0.699115069373E+02    0.62467E-04   -0.21970E-04141246   0.136E-01    0.416E-02
DAV:   4    -0.699114928727E+02    0.14065E-04   -0.53284E-05117660   0.491E-02    0.195E-02
DAV:   5    -0.699114942327E+02   -0.13600E-05   -0.15400E-05 62472   0.282E-02    0.109E-02
DAV:   6    -0.699114940103E+02    0.22235E-06   -0.97015E-06 58116   0.140E-02
  13 F= -.69911494E+02 E0= -.69911494E+02  d E =-.484750E-03  mag=     0.0000
       N       E                     dE             d eps       ncg     rms          rms(c)
DAV:   1    -0.699118467995E+02   -0.35257E-03   -0.12914E-01111888   0.225E+00    0.167E-01
DAV:   2    -0.699117641912E+02    0.82608E-04   -0.29858E-03115224   0.390E-01    0.104E-01
DAV:   3    -0.699116983999E+02    0.65791E-04   -0.27164E-04141900   0.144E-01    0.441E-02
DAV:   4    -0.699116876433E+02    0.10757E-04   -0.79773E-05126714   0.532E-02    0.229E-02
DAV:   5    -0.699116923023E+02   -0.46590E-05   -0.27040E-05 66648   0.311E-02    0.154E-02
DAV:   6    -0.699116954948E+02   -0.31925E-05   -0.23675E-05 65736   0.172E-02
  14 F= -.69911695E+02 E0= -.69911695E+02  d E =-.686234E-03  mag=     0.0000
       N       E                     dE             d eps       ncg     rms          rms(c)
DAV:   1    -0.699118901115E+02   -0.19781E-03   -0.83203E-02111888   0.175E+00    0.993E-02
DAV:   2    -0.699119646059E+02   -0.74494E-04   -0.16689E-03112248   0.268E-01    0.634E-02
DAV:   3    -0.699119471642E+02    0.17442E-04   -0.65719E-05127296   0.596E-02    0.320E-02
DAV:   4    -0.699119436818E+02    0.34824E-05   -0.47800E-05 69030   0.379E-02    0.171E-02
DAV:   5    -0.699119464280E+02   -0.27462E-05   -0.13967E-05 74052   0.193E-02    0.112E-02
DAV:   6    -0.699119497320E+02   -0.33040E-05   -0.15849E-05 57390   0.138E-02
  15 F= -.69911950E+02 E0= -.69911950E+02  d E =-.254237E-03  mag=     0.0000
