       N       E                     dE             d eps       ncg     rms          rms(c)
DAV:   1     0.751890684577E+03    0.75189E+03   -0.34121E+04110763   0.229E+03
DAV:   2     0.183938274077E+02   -0.73350E+03   -0.69128E+03112302   0.640E+02
DAV:   3    -0.625650023061E+02   -0.80959E+02   -0.80036E+02128592   0.202E+02
DAV:   4    -0.643706043352E+02   -0.18056E+01   -0.18030E+01116397   0.335E+01
DAV:   5    -0.644047983371E+02   -0.34194E-01   -0.34193E-01138195   0.433E+00    0.368E+00
DAV:   6    -0.508155473737E+02    0.13589E+02   -0.64461E+00108747   0.182E+01    0.416E+00
DAV:   7    -0.507416887249E+02    0.73859E-01   -0.15825E-01123633   0.305E+00    0.177E+00
DAV:   8    -0.507191575944E+02    0.22531E-01   -0.28709E-02114579   0.118E+00    0.130E+00
DAV:   9    -0.507059128106E+02    0.13245E-01   -0.13821E-02121320   0.850E-01    0.851E-01
DAV:  10    -0.507020853393E+02    0.38275E-02   -0.26617E-03120069   0.412E-01    0.650E-01
DAV:  11    -0.507004393866E+02    0.16460E-02   -0.75699E-04117900   0.221E-01    0.542E-01
DAV:  12    -0.506983517270E+02    0.20877E-02   -0.20903E-03114777   0.358E-01    0.358E-01
DAV:  13    -0.506976367648E+02    0.71496E-03   -0.59813E-04124839   0.185E-01    0.269E-01
DAV:  14    -0.506968933714E+02    0.74339E-03   -0.20828E-03110880   0.359E-01    0.836E-02
DAV:  15    -0.506968452741E+02    0.48097E-04   -0.39963E-04125856   0.152E-01    0.147E-02
DAV:  16    -0.506968506109E+02   -0.53367E-05   -0.11676E-05 66825   0.273E-02
   1 F= -.50696851E+02 E0= -.50696851E+02  d E =-.506969E+02  mag=    -0.0000
