       N       E                     dE             d eps       ncg     rms          ort
DAV:   1     0.258890052050E+04    0.25889E+04   -0.10375E+05 22800   0.194E+03
DAV:   2     0.157969343416E+03   -0.24309E+04   -0.22614E+04 22800   0.543E+02
DAV:   3    -0.242034015013E+03   -0.40000E+03   -0.37039E+03 22800   0.225E+02
DAV:   4    -0.267247423002E+03   -0.25213E+02   -0.24761E+02 22800   0.594E+01
DAV:   5    -0.268216123444E+03   -0.96870E+00   -0.93413E+00 22800   0.118E+01
SDA:   6    -0.216834242800E+03    0.51382E+02   -0.93413E+00 22800   0.131E+02 0.000E+00
CGA:   7    -0.218769047173E+03   -0.19348E+01   -0.19427E+01 22800   0.137E+01 0.601E-01
CGA:   8    -0.219046017098E+03   -0.27697E+00   -0.27690E+00 22800   0.419E+00 0.191E-01
CGA:   9    -0.219130884773E+03   -0.84868E-01   -0.84851E-01 22800   0.129E+00 0.720E-02
CGA:  10    -0.219159969958E+03   -0.29085E-01   -0.28961E-01 22800   0.422E-01 0.509E-02
CGA:  11    -0.219171475160E+03   -0.11505E-01   -0.11419E-01 22800   0.217E-01 0.135E-02
CGA:  12    -0.219177639176E+03   -0.61640E-02   -0.62165E-02 22800   0.934E-02-0.711E-03
CGA:  13    -0.219180218594E+03   -0.25794E-02   -0.25564E-02 22800   0.259E-02 0.285E-03
CGA:  14    -0.219180843549E+03   -0.62496E-03   -0.61573E-03 22800   0.709E-03 0.442E-03
CGA:  15    -0.219181026129E+03   -0.18258E-03   -0.18089E-03 22800   0.205E-03 0.228E-03
CGA:  16    -0.219181087295E+03   -0.61166E-04   -0.60102E-04 22800   0.975E-04 0.986E-04
CGA:  17    -0.219181147345E+03   -0.60050E-04   -0.68376E-04 22800   0.103E-03-0.319E-04
CGA:  18    -0.219181191930E+03   -0.44585E-04    0.17672E-04 22800   0.709E-04-0.615E-05
CGA:  19    -0.219181232157E+03   -0.40228E-04    0.21806E-04 22800   0.427E-04-0.715E-05
CGA:  20    -0.219181242304E+03   -0.10146E-04   -0.10456E-04 22800   0.284E-04-0.650E-05
CGA:  21    -0.219181242006E+03    0.29766E-06   -0.19361E-05 22800   0.207E-04 0.152E-04
   1 F= -.21918124E+03 E0= -.21918124E+03  d E =-.219181E+03  mag=    12.0000
       N       E                     dE             d eps       ncg     rms          ort
SDA:   1    -0.219155074340E+03    0.26168E-01    0.00000E+00 22800   0.846E-01 0.000E+00
CGA:   2    -0.219172888309E+03   -0.17814E-01   -0.17816E-01 22800   0.355E-01 0.535E-03
CGA:   3    -0.219179782200E+03   -0.68939E-02   -0.69147E-02 22800   0.939E-02 0.100E-02
CGA:   4    -0.219181396566E+03   -0.16144E-02   -0.16347E-02 22800   0.188E-02 0.465E-03
CGA:   5    -0.219181740018E+03   -0.34345E-03   -0.34913E-03 22800   0.400E-03 0.168E-03
CGA:   6    -0.219181811195E+03   -0.71177E-04   -0.74713E-04 22800   0.906E-04 0.938E-04
CGA:   7    -0.219181828291E+03   -0.17096E-04   -0.18679E-04 22800   0.292E-04 0.394E-04
CGA:   8    -0.219181835248E+03   -0.69571E-05   -0.73815E-05 22800   0.113E-04 0.147E-04
   2 F= -.21918184E+03 E0= -.21918184E+03  d E =-.593242E-03  mag=    12.0000
       N       E                     dE             d eps       ncg     rms          ort
SDA:   1    -0.219173729870E+03    0.80984E-02    0.00000E+00 22800   0.259E-01 0.000E+00
CGA:   2    -0.219179153574E+03   -0.54237E-02   -0.54224E-02 22800   0.108E-01 0.260E-03
CGA:   3    -0.219181214344E+03   -0.20608E-02   -0.20686E-02 22800   0.279E-02 0.525E-03
CGA:   4    -0.219181690917E+03   -0.47657E-03   -0.48638E-03 22800   0.542E-03 0.261E-03
CGA:   5    -0.219181787657E+03   -0.96740E-04   -0.10002E-03 22800   0.114E-03 0.988E-04
CGA:   6    -0.219181804385E+03   -0.16729E-04   -0.19539E-04 22800   0.319E-04 0.505E-04
CGA:   7    -0.219181807690E+03   -0.33051E-05   -0.53016E-05 22800   0.138E-04 0.242E-04
   3 F= -.21918181E+03 E0= -.21918181E+03  d E =-.565684E-03  mag=    12.0000
       N       E                     dE             d eps       ncg     rms          ort
SDA:   1    -0.219180387626E+03    0.14168E-02    0.00000E+00 22800   0.429E-02 0.000E+00
CGA:   2    -0.219181305863E+03   -0.91824E-03   -0.92001E-03 22800   0.187E-02-0.844E-04
CGA:   3    -0.219181702019E+03   -0.39616E-03   -0.40252E-03 22800   0.632E-03-0.247E-03
CGA:   4    -0.219181806979E+03   -0.10496E-03   -0.10440E-03 22800   0.169E-03-0.124E-03
CGA:   5    -0.219181836200E+03   -0.29221E-04   -0.30657E-04 22800   0.647E-04-0.466E-04
CGA:   6    -0.219181847173E+03   -0.10973E-04   -0.13169E-04 22800   0.373E-04-0.258E-04
CGA:   7    -0.219181849932E+03   -0.27596E-05   -0.31487E-05 22800   0.123E-04 0.648E-05
   4 F= -.21918185E+03 E0= -.21918185E+03  d E =-.607926E-03  mag=    12.0000
       N       E                     dE             d eps       ncg     rms          ort
SDA:   1    -0.219181086080E+03    0.76109E-03    0.00000E+00 22800   0.223E-02 0.000E+00
CGA:   2    -0.219181560207E+03   -0.47413E-03   -0.47502E-03 22800   0.948E-03-0.431E-04
CGA:   3    -0.219181764635E+03   -0.20443E-03   -0.21045E-03 22800   0.362E-03-0.178E-03
CGA:   4    -0.219181823420E+03   -0.58785E-04   -0.59626E-04 22800   0.125E-03-0.985E-04
CGA:   5    -0.219181842812E+03   -0.19392E-04   -0.20578E-04 22800   0.526E-04-0.387E-04
CGA:   6    -0.219181851422E+03   -0.86102E-05   -0.98963E-05 22800   0.276E-04-0.169E-04
   5 F= -.21918185E+03 E0= -.21918185E+03  d E =-.609416E-03  mag=    12.0000
       N       E                     dE             d eps       ncg     rms          ort
SDA:   1    -0.219181648079E+03    0.19473E-03    0.00000E+00 22800   0.562E-03 0.000E+00
CGA:   2    -0.219181762439E+03   -0.11436E-03   -0.11439E-03 22800   0.224E-03-0.506E-05
CGA:   3    -0.219181814262E+03   -0.51823E-04   -0.56793E-04 22800   0.122E-03-0.841E-04
CGA:   4    -0.219181830011E+03   -0.15749E-04   -0.21542E-04 22800   0.840E-04-0.702E-04
CGA:   5    -0.219181841118E+03   -0.11107E-04   -0.11436E-04 22800   0.178E-04 0.485E-05
CGA:   6    -0.219181844668E+03   -0.35491E-05   -0.35937E-05 22800   0.342E-05 0.467E-05
   6 F= -.21918184E+03 E0= -.21918184E+03  d E =-.602662E-03  mag=    12.0000
       N       E                     dE             d eps       ncg     rms          ort
SDA:   1    -0.219181787019E+03    0.54099E-04    0.00000E+00 22800   0.123E-03 0.000E+00
CGA:   2    -0.219181812945E+03   -0.25926E-04   -0.26053E-04 22800   0.552E-04-0.707E-05
CGA:   3    -0.219181812122E+03    0.82334E-06   -0.25672E-04 22800   0.229E-03-0.889E-04
CGA:   4    -0.219181835549E+03   -0.23428E-04   -0.24256E-04 22800   0.210E-04 0.787E-05
CGA:   5    -0.219181840021E+03   -0.44712E-05   -0.44693E-05 22800   0.513E-05 0.154E-05
CGA:   6    -0.219181840899E+03   -0.87806E-06   -0.89202E-06 22800   0.820E-06 0.321E-06
   7 F= -.21918184E+03 E0= -.21918184E+03  d E =-.598893E-03  mag=    12.0000
       N       E                     dE             d eps       ncg     rms          ort
SDA:   1    -0.219150123202E+03    0.31717E-01    0.00000E+00 22800   0.784E-01 0.000E+00
CGA:   2    -0.219176732024E+03   -0.26609E-01   -0.26559E-01 22800   0.232E-01 0.329E-03
CGA:   3    -0.219181356034E+03   -0.46240E-02   -0.46262E-02 22800   0.367E-02 0.652E-03
CGA:   4    -0.219182105298E+03   -0.74926E-03   -0.74977E-03 22800   0.847E-03 0.185E-03
CGA:   5    -0.219182233608E+03   -0.12831E-03   -0.13544E-03 22800   0.170E-03 0.145E-03
CGA:   6    -0.219182266241E+03   -0.32632E-04   -0.34147E-04 22800   0.427E-04 0.556E-04
CGA:   7    -0.219182280536E+03   -0.14296E-04   -0.14293E-04 22800   0.190E-04 0.412E-08
CGA:   8    -0.219182283564E+03   -0.30280E-05   -0.31943E-05 22800   0.645E-05 0.514E-05
   8 F= -.21918228E+03 E0= -.21918228E+03  d E =-.442666E-03  mag=    12.0000
