       N       E                     dE             d eps       ncg     rms          rms(c)
DAV:   1     0.948112774895E+03    0.94811E+03   -0.40802E+04113841   0.197E+03
DAV:   2     0.219083330478E+02   -0.92620E+03   -0.86809E+03122250   0.568E+02
DAV:   3    -0.900897037689E+02   -0.11200E+03   -0.10986E+03126972   0.211E+02
DAV:   4    -0.932076395485E+02   -0.31179E+01   -0.31123E+01124023   0.366E+01
DAV:   5    -0.932545078802E+02   -0.46868E-01   -0.46863E-01132015   0.496E+00    0.379E+01
DAV:   6    -0.634945395097E+02    0.29760E+02   -0.45458E+01137421   0.793E+01    0.419E+01
DAV:   7    -0.651068749833E+02   -0.16123E+01   -0.94784E+00116778   0.197E+01    0.274E+01
DAV:   8    -0.649239305069E+02    0.18294E+00   -0.26416E+00131040   0.175E+01    0.153E+01
DAV:   9    -0.648663661196E+02    0.57564E-01   -0.12646E+00130305   0.129E+01    0.454E+00
DAV:  10    -0.653588215602E+02   -0.49246E+00   -0.23517E-01119949   0.590E+00    0.414E-01
DAV:  11    -0.653595258483E+02   -0.70429E-03   -0.13070E-02122658   0.105E+00    0.298E-01
DAV:  12    -0.653600186813E+02   -0.49283E-03   -0.24229E-03123720   0.496E-01    0.251E-01
DAV:  13    -0.653607232675E+02   -0.70459E-03   -0.30578E-03126114   0.348E-01    0.154E-01
DAV:  14    -0.653605405723E+02    0.18270E-03   -0.37903E-04122046   0.139E-01    0.710E-02
DAV:  15    -0.653605375528E+02    0.30195E-05   -0.44091E-04121308   0.123E-01    0.802E-02
DAV:  16    -0.653605368590E+02    0.69380E-06   -0.12571E-05 72876   0.312E-02
   1 F= -.65360537E+02 E0= -.65360537E+02  d E =-.653605E+02  mag=     0.0000
       N       E                     dE             d eps       ncg     rms          rms(c)
DAV:   1    -0.654751487614E+02   -0.11461E+00   -0.29662E+00131244   0.159E+01    0.317E+00
DAV:   2    -0.653710949701E+02    0.10405E+00   -0.30442E-01116052   0.449E+00    0.316E+00
DAV:   3    -0.653654741966E+02    0.56208E-02   -0.19236E-02121020   0.108E+00    0.118E+00
DAV:   4    -0.653615778599E+02    0.38963E-02   -0.55906E-03127296   0.722E-01    0.669E-01
DAV:   5    -0.653608291631E+02    0.74870E-03   -0.15630E-03122682   0.309E-01    0.187E-01
DAV:   6    -0.653608674934E+02   -0.38330E-04   -0.87153E-05125598   0.112E-01    0.288E-02
DAV:   7    -0.653608699710E+02   -0.24776E-05   -0.21726E-05 87708   0.361E-02
   2 F= -.65360870E+02 E0= -.65360870E+02  d E =-.333112E-03  mag=     0.0000
       N       E                     dE             d eps       ncg     rms          rms(c)
DAV:   1    -0.653923857825E+02   -0.31518E-01   -0.77034E-01130980   0.803E+00    0.160E+00
DAV:   2    -0.653655734089E+02    0.26812E-01   -0.79822E-02115380   0.229E+00    0.157E+00
DAV:   3    -0.653639257969E+02    0.16476E-02   -0.49929E-03121092   0.564E-01    0.592E-01
DAV:   4    -0.653628889726E+02    0.10368E-02   -0.14219E-03128418   0.378E-01    0.335E-01
DAV:   5    -0.653627191344E+02    0.16984E-03   -0.39681E-04123000   0.159E-01    0.971E-02
DAV:   6    -0.653627073203E+02    0.11814E-04   -0.20333E-05 94521   0.547E-02    0.159E-02
DAV:   7    -0.653627066185E+02    0.70184E-06   -0.60811E-06 72012   0.202E-02
   3 F= -.65362707E+02 E0= -.65362707E+02  d E =-.216976E-02  mag=     0.0000
