       N       E                     dE             d eps       ncg     rms          rms(c)
DAV:   1     0.174116314761E+04    0.17412E+04   -0.78226E+04128536   0.185E+03
DAV:   2     0.262949708017E+02   -0.17149E+04   -0.15991E+04133792   0.545E+02
DAV:   3    -0.173723639615E+03   -0.20002E+03   -0.19078E+03129608   0.198E+02
DAV:   4    -0.180248479711E+03   -0.65248E+01   -0.64949E+01128380   0.368E+01
DAV:   5    -0.180333946653E+03   -0.85467E-01   -0.85403E-01132464   0.445E+00    0.781E+00
DAV:   6    -0.141459741001E+03    0.38874E+02   -0.17038E+01127052   0.179E+01    0.104E+01
DAV:   7    -0.141344959086E+03    0.11478E+00   -0.30915E-01128108   0.326E+00    0.430E+00
DAV:   8    -0.141273473048E+03    0.71486E-01   -0.12839E-01127752   0.154E+00    0.259E+00
DAV:   9    -0.141255664910E+03    0.17808E-01   -0.14587E-02128056   0.590E-01    0.185E+00
DAV:  10    -0.141247535299E+03    0.81296E-02   -0.46632E-03127696   0.294E-01    0.153E+00
DAV:  11    -0.141239306108E+03    0.82292E-02   -0.79290E-03127900   0.400E-01    0.105E+00
DAV:  12    -0.141236143122E+03    0.31630E-02   -0.26004E-03127688   0.228E-01    0.783E-01
DAV:  13    -0.141233740121E+03    0.24030E-02   -0.30628E-03127744   0.248E-01    0.481E-01
DAV:  14    -0.141232469044E+03    0.12711E-02   -0.38667E-03127540   0.279E-01    0.144E-01
DAV:  15    -0.141232378103E+03    0.90942E-04   -0.42421E-04128000   0.930E-02    0.406E-02
DAV:  16    -0.141232377580E+03    0.52328E-06   -0.74096E-06 69208   0.135E-02
   1 F= -.14123238E+03 E0= -.14123238E+03  d E =-.141232E+03  mag=     0.0000
       N       E                     dE             d eps       ncg     rms          rms(c)
DAV:   1    -0.141237552176E+03   -0.51741E-02   -0.28674E-01125204   0.320E+00    0.681E-01
DAV:   2    -0.141233894743E+03    0.36574E-02   -0.18431E-02125080   0.845E-01    0.420E-01
DAV:   3    -0.141233588648E+03    0.30609E-03   -0.16097E-03133680   0.227E-01    0.201E-01
DAV:   4    -0.141233340742E+03    0.24791E-03   -0.54973E-04137736   0.122E-01    0.107E-01
DAV:   5    -0.141233270009E+03    0.70733E-04   -0.11309E-04124560   0.674E-02    0.588E-02
DAV:   6    -0.141233296859E+03   -0.26850E-04   -0.30559E-05 91376   0.313E-02    0.271E-02
DAV:   7    -0.141233298845E+03   -0.19860E-05   -0.72676E-06 66592   0.179E-02
   2 F= -.14123330E+03 E0= -.14123330E+03  d E =-.921266E-03  mag=    -0.0000
       N       E                     dE             d eps       ncg     rms          rms(c)
DAV:   1    -0.141233748485E+03   -0.45163E-03   -0.27511E-02125120   0.989E-01    0.207E-01
DAV:   2    -0.141233417677E+03    0.33081E-03   -0.17279E-03125048   0.259E-01    0.127E-01
DAV:   3    -0.141233426220E+03   -0.85429E-05   -0.15420E-04133984   0.699E-02    0.623E-02
DAV:   4    -0.141233394118E+03    0.32102E-04   -0.48628E-05 86048   0.369E-02    0.331E-02
DAV:   5    -0.141233379585E+03    0.14533E-04   -0.11763E-05 65732   0.239E-02    0.189E-02
DAV:   6    -0.141233384697E+03   -0.51123E-05   -0.59232E-06 64708   0.158E-02
   3 F= -.14123338E+03 E0= -.14123338E+03  d E =-.100712E-02  mag=    -0.0000
       N       E                     dE             d eps       ncg     rms          rms(c)
DAV:   1    -0.141234612009E+03   -0.12324E-02   -0.64950E-02122876   0.126E+00    0.265E-01
DAV:   2    -0.141234102761E+03    0.50925E-03   -0.14708E-03125300   0.261E-01    0.172E-01
DAV:   3    -0.141233919366E+03    0.18339E-03   -0.20977E-04133364   0.858E-02    0.938E-02
DAV:   4    -0.141233869222E+03    0.50144E-04   -0.10731E-04131160   0.545E-02    0.480E-02
DAV:   5    -0.141233880228E+03   -0.11006E-04   -0.19002E-05 71296   0.284E-02    0.251E-02
DAV:   6    -0.141233900253E+03   -0.20026E-04   -0.80145E-06 64476   0.156E-02    0.139E-02
DAV:   7    -0.141233901419E+03   -0.11658E-05   -0.16594E-06 63744   0.779E-03
   4 F= -.14123390E+03 E0= -.14123390E+03  d E =-.516722E-03  mag=    -0.0000
       N       E                     dE             d eps       ncg     rms          rms(c)
DAV:   1    -0.141240918404E+03   -0.70182E-02   -0.58562E-01122404   0.380E+00    0.796E-01
DAV:   2    -0.141236125167E+03    0.47932E-02   -0.13355E-02124992   0.783E-01    0.517E-01
DAV:   3    -0.141235017312E+03    0.11079E-02   -0.18219E-03131904   0.253E-01    0.281E-01
DAV:   4    -0.141234600503E+03    0.41681E-03   -0.97266E-04156816   0.163E-01    0.143E-01
DAV:   5    -0.141234619112E+03   -0.18609E-04   -0.17658E-04131396   0.827E-02    0.761E-02
DAV:   6    -0.141234675138E+03   -0.56026E-04   -0.54402E-05108368   0.418E-02    0.434E-02
DAV:   7    -0.141234686126E+03   -0.10988E-04   -0.89031E-06 65596   0.196E-02    0.180E-02
DAV:   8    -0.141234690995E+03   -0.48694E-05   -0.42499E-06 64376   0.106E-02
   5 F= -.14123469E+03 E0= -.14123469E+03  d E =-.130630E-02  mag=    -0.0000
       N       E                     dE             d eps       ncg     rms          rms(c)
DAV:   1    -0.141235238352E+03   -0.55223E-03   -0.47984E-02122652   0.109E+00    0.228E-01
DAV:   2    -0.141234867305E+03    0.37105E-03   -0.11136E-03125416   0.227E-01    0.149E-01
DAV:   3    -0.141234719645E+03    0.14766E-03   -0.14808E-04131448   0.727E-02    0.807E-02
DAV:   4    -0.141234679991E+03    0.39654E-04   -0.80423E-05112992   0.472E-02    0.411E-02
DAV:   5    -0.141234689401E+03   -0.94095E-05   -0.14541E-05 65748   0.254E-02    0.217E-02
DAV:   6    -0.141234707619E+03   -0.18218E-04   -0.67265E-06 63896   0.135E-02    0.122E-02
DAV:   7    -0.141234708109E+03   -0.48981E-06   -0.13069E-06 63192   0.660E-03
   6 F= -.14123471E+03 E0= -.14123471E+03  d E =-.132341E-02  mag=    -0.0000
       N       E                     dE             d eps       ncg     rms          rms(c)
DAV:   1    -0.141236233924E+03   -0.15263E-02   -0.72820E-02122876   0.158E+00    0.318E-01
DAV:   2    -0.141235449354E+03    0.78457E-03   -0.43617E-03124936   0.429E-01    0.206E-01
DAV:   3    -0.141235251571E+03    0.19778E-03   -0.44458E-04136968   0.111E-01    0.945E-02
DAV:   4    -0.141235250039E+03    0.15327E-05   -0.20679E-04138124   0.614E-02    0.582E-02
DAV:   5    -0.141235266406E+03   -0.16368E-04   -0.22711E-05 76976   0.345E-02    0.364E-02
DAV:   6    -0.141235260143E+03    0.62639E-05   -0.15993E-05 64392   0.225E-02
   7 F= -.14123526E+03 E0= -.14123526E+03  d E =-.552034E-03  mag=    -0.0000
