       N       E                     dE             d eps       ncg     rms          ort
DAV:   1     0.515422211679E+03    0.51542E+03   -0.22324E+04 20832   0.192E+03
DAV:   2     0.394375143415E+01   -0.51148E+03   -0.50262E+03 20832   0.560E+02
DAV:   3    -0.529941937878E+02   -0.56938E+02   -0.56414E+02 20832   0.185E+02
DAV:   4    -0.548923016962E+02   -0.18981E+01   -0.18823E+01 20832   0.381E+01
DAV:   5    -0.549391402255E+02   -0.46839E-01   -0.46652E-01 20832   0.576E+00
SDA:   6    -0.300943198239E+02    0.24845E+02   -0.46652E-01 20832   0.103E+03 0.000E+00
CGA:   7    -0.426337079445E+02   -0.12539E+02   -0.11885E+02 20832   0.104E+02-0.559E+01
CGA:   8    -0.446282038439E+02   -0.19945E+01   -0.19993E+01 20832   0.320E+01-0.295E+00
CGA:   9    -0.452997281373E+02   -0.67152E+00   -0.68115E+00 20832   0.808E+00-0.281E+00
CGA:  10    -0.454495187926E+02   -0.14979E+00   -0.24199E+00 20832   0.832E+00-0.469E+00
CGA:  11    -0.455690651394E+02   -0.11955E+00   -0.11885E+00 20832   0.649E-01-0.690E-02
CGA:  12    -0.455837526205E+02   -0.14687E-01   -0.14483E-01 20832   0.204E-01 0.447E-02
CGA:  13    -0.455924647821E+02   -0.87122E-02   -0.86792E-02 20832   0.123E-01 0.158E-03
CGA:  14    -0.455958769243E+02   -0.34121E-02   -0.33989E-02 20832   0.306E-02 0.208E-03
CGA:  15    -0.455968334615E+02   -0.95654E-03   -0.91702E-03 20832   0.644E-03 0.496E-03
CGA:  16    -0.455970340237E+02   -0.20056E-03   -0.19671E-03 20832   0.136E-03 0.876E-04
CGA:  17    -0.455965575829E+02    0.47644E-03   -0.25814E-03 20832   0.257E-02-0.569E-03
CGA:  18    -0.455970014991E+02   -0.44392E-03   -0.47995E-03 20832   0.306E-03 0.166E-03
CGA:  19    -0.455970958262E+02   -0.94327E-04   -0.98426E-04 20832   0.768E-04 0.453E-04
CGA:  20    -0.455971321127E+02   -0.36287E-04   -0.37285E-04 20832   0.371E-04-0.285E-04
CGA:  21    -0.455971368442E+02   -0.47315E-05   -0.53123E-05 20832   0.125E-04 0.358E-05
   1 F= -.45597137E+02 E0= -.45597137E+02  d E =-.455971E+02  mag=     3.0000
