       N       E                     dE             d eps       ncg     rms          rms(c)
DAV:   1     0.175222774937E+04    0.17522E+04   -0.78376E+04128960   0.185E+03
DAV:   2     0.327120045330E+02   -0.17195E+04   -0.15957E+04133088   0.544E+02
DAV:   3    -0.168602486154E+03   -0.20131E+03   -0.19338E+03130960   0.198E+02
DAV:   4    -0.175209954795E+03   -0.66075E+01   -0.65777E+01129324   0.367E+01
DAV:   5    -0.175301902996E+03   -0.91948E-01   -0.91875E-01135048   0.462E+00    0.764E+00
DAV:   6    -0.136622831469E+03    0.38679E+02   -0.16879E+01127224   0.178E+01    0.978E+00
DAV:   7    -0.136503817586E+03    0.11901E+00   -0.31819E-01128248   0.359E+00    0.450E+00
DAV:   8    -0.136435865061E+03    0.67953E-01   -0.14047E-01127744   0.164E+00    0.233E+00
DAV:   9    -0.136424946409E+03    0.10919E-01   -0.64225E-03128152   0.350E-01    0.203E+00
DAV:  10    -0.136409868801E+03    0.15078E-01   -0.13796E-02127576   0.522E-01    0.144E+00
DAV:  11    -0.136402930212E+03    0.69386E-02   -0.62208E-03128004   0.349E-01    0.105E+00
DAV:  12    -0.136400013883E+03    0.29163E-02   -0.20181E-03127644   0.199E-01    0.815E-01
DAV:  13    -0.136398585855E+03    0.14280E-02   -0.77808E-04127888   0.123E-01    0.669E-01
DAV:  14    -0.136395974698E+03    0.26112E-02   -0.74426E-03127208   0.384E-01    0.207E-01
DAV:  15    -0.136395759424E+03    0.21527E-03   -0.84092E-04130024   0.130E-01    0.667E-02
DAV:  16    -0.136395748167E+03    0.11257E-04   -0.69888E-05116912   0.371E-02    0.196E-02
DAV:  17    -0.136395750412E+03   -0.22458E-05   -0.55196E-06 68448   0.130E-02
   1 F= -.13639575E+03 E0= -.13639575E+03  d E =-.136396E+03  mag=    -0.0000
