       N       E                     dE             d eps       ncg     rms          rms(c)
DAV:   1     0.195659466375E+04    0.19566E+04   -0.93110E+04 92056   0.177E+03
DAV:   2    -0.209392400435E+02   -0.19775E+04   -0.18344E+04 96904   0.516E+02
DAV:   3    -0.248191429026E+03   -0.22725E+03   -0.22399E+03 97240   0.189E+02
DAV:   4    -0.253553492216E+03   -0.53621E+01   -0.52881E+01102160   0.299E+01
DAV:   5    -0.253702935013E+03   -0.14944E+00   -0.14854E+00123912   0.469E+00    0.664E+01
DAV:   6    -0.177961513579E+03    0.75741E+02   -0.16123E+02122104   0.827E+01    0.396E+01
DAV:   7    -0.179079934508E+03   -0.11184E+01   -0.27786E+01118360   0.501E+01    0.280E+01
DAV:   8    -0.178389362087E+03    0.69057E+00   -0.39381E+00115176   0.125E+01    0.135E+01
DAV:   9    -0.178799847038E+03   -0.41048E+00   -0.30824E+00122480   0.130E+01    0.845E+00
DAV:  10    -0.178568280769E+03    0.23157E+00   -0.11699E+00110176   0.806E+00    0.398E+00
DAV:  11    -0.178577495521E+03   -0.92148E-02   -0.19024E-01105120   0.246E+00    0.256E+00
DAV:  12    -0.178582352195E+03   -0.48567E-02   -0.55164E-02103784   0.129E+00    0.121E+00
DAV:  13    -0.178579105270E+03    0.32469E-02   -0.17052E-02122008   0.994E-01    0.594E-01
DAV:  14    -0.178577821956E+03    0.12833E-02   -0.88054E-03105336   0.536E-01    0.187E-01
DAV:  15    -0.178577980055E+03   -0.15810E-03   -0.14865E-03108224   0.215E-01    0.127E-01
DAV:  16    -0.178577785206E+03    0.19485E-03   -0.35831E-04105344   0.116E-01    0.400E-02
DAV:  17    -0.178577826609E+03   -0.41403E-04   -0.30850E-05 82120   0.273E-02    0.232E-02
DAV:  18    -0.178577890515E+03   -0.63906E-04   -0.70757E-06 55576   0.182E-02    0.182E-02
DAV:  19    -0.178577878689E+03    0.11827E-04   -0.61360E-06 52624   0.133E-02    0.936E-03
DAV:  20    -0.178577866431E+03    0.12258E-04   -0.95323E-07 48496   0.591E-03    0.705E-03
DAV:  21    -0.178577874935E+03   -0.85037E-05   -0.65026E-07 47528   0.525E-03
   1 F= -.17857787E+03 E0= -.17857787E+03  d E =-.178578E+03  mag=    -0.0000
       N       E                     dE             d eps       ncg     rms          rms(c)
DAV:   1    -0.178577349244E+03    0.51719E-03   -0.13990E-01110136   0.316E+00    0.323E-01
DAV:   2    -0.178577848393E+03   -0.49915E-03   -0.17072E-02 93696   0.638E-01    0.227E-01
DAV:   3    -0.178577783226E+03    0.65167E-04   -0.67590E-04 98768   0.161E-01    0.135E-01
DAV:   4    -0.178577550270E+03    0.23296E-03   -0.13603E-04104056   0.685E-02    0.802E-02
DAV:   5    -0.178577454751E+03    0.95519E-04   -0.29302E-05 72096   0.356E-02    0.465E-02
DAV:   6    -0.178577556560E+03   -0.10181E-03   -0.15145E-05 57656   0.201E-02    0.212E-02
DAV:   7    -0.178577556564E+03   -0.36962E-08   -0.31428E-06 50728   0.138E-02
   2 F= -.17857756E+03 E0= -.17857756E+03  d E =0.318371E-03  mag=    -0.0000
       N       E                     dE             d eps       ncg     rms          rms(c)
DAV:   1    -0.178577580036E+03   -0.23476E-04   -0.25963E-02110168   0.136E+00    0.141E-01
DAV:   2    -0.178577940743E+03   -0.36071E-03   -0.31603E-03 93560   0.276E-01    0.984E-02
DAV:   3    -0.178577854001E+03    0.86742E-04   -0.13040E-04 99208   0.710E-02    0.585E-02
DAV:   4    -0.178577872301E+03   -0.18299E-04   -0.22570E-05 65880   0.294E-02    0.352E-02
DAV:   5    -0.178577910963E+03   -0.38662E-04   -0.74223E-06 52968   0.179E-02    0.208E-02
DAV:   6    -0.178577868314E+03    0.42649E-04   -0.40919E-06 47968   0.103E-02    0.929E-03
DAV:   7    -0.178577862954E+03    0.53595E-05   -0.75330E-07 46240   0.640E-03
   3 F= -.17857786E+03 E0= -.17857786E+03  d E =0.119805E-04  mag=    -0.0000
       N       E                     dE             d eps       ncg     rms          rms(c)
DAV:   1    -0.178578132848E+03   -0.26453E-03   -0.10612E-01 90624   0.148E+00    0.196E-01
DAV:   2    -0.178578163487E+03   -0.30638E-04   -0.30213E-03 91664   0.279E-01    0.143E-01
DAV:   3    -0.178578374934E+03   -0.21145E-03   -0.15344E-04101960   0.837E-02    0.850E-02
DAV:   4    -0.178578269712E+03    0.10522E-03   -0.50581E-05 90792   0.445E-02    0.461E-02
DAV:   5    -0.178578307632E+03   -0.37920E-04   -0.13385E-05 58128   0.227E-02    0.293E-02
DAV:   6    -0.178578355092E+03   -0.47460E-04   -0.90135E-06 49592   0.156E-02    0.110E-02
DAV:   7    -0.178578356088E+03   -0.99587E-06   -0.15538E-06 46360   0.931E-03
   4 F= -.17857836E+03 E0= -.17857836E+03  d E =-.493134E-03  mag=     0.0000
