       N       E                     dE             d eps       ncg     rms          rms(c)
DAV:   1     0.936148687802E+03    0.93615E+03   -0.40777E+04113946   0.197E+03
DAV:   2     0.124534466800E+02   -0.92370E+03   -0.86345E+03120825   0.568E+02
DAV:   3    -0.101041193540E+03   -0.11349E+03   -0.11117E+03126936   0.212E+02
DAV:   4    -0.104180764067E+03   -0.31396E+01   -0.31334E+01123714   0.364E+01
DAV:   5    -0.104226656671E+03   -0.45893E-01   -0.45887E-01131175   0.486E+00    0.373E+01
DAV:   6    -0.743853383610E+02    0.29841E+02   -0.45547E+01138453   0.754E+01    0.399E+01
DAV:   7    -0.757730033532E+02   -0.13877E+01   -0.82727E+00114444   0.182E+01    0.263E+01
DAV:   8    -0.758624923081E+02   -0.89489E-01   -0.22357E+00129804   0.173E+01    0.139E+01
DAV:   9    -0.756306828186E+02    0.23181E+00   -0.89897E-01134331   0.124E+01    0.451E+00
DAV:  10    -0.760356069460E+02   -0.40492E+00   -0.21316E-01120363   0.543E+00    0.433E-01
DAV:  11    -0.760339276245E+02    0.16793E-02   -0.15423E-02123192   0.115E+00    0.336E-01
DAV:  12    -0.760361865102E+02   -0.22589E-02   -0.22666E-03123954   0.570E-01    0.237E-01
DAV:  13    -0.760361972410E+02   -0.10731E-04   -0.11068E-03125814   0.216E-01    0.185E-01
DAV:  14    -0.760357478798E+02    0.44936E-03   -0.74300E-05123288   0.733E-02    0.827E-02
DAV:  15    -0.760357286059E+02    0.19274E-04   -0.30001E-04122448   0.106E-01    0.570E-02
DAV:  16    -0.760357545391E+02   -0.25933E-04   -0.12056E-05 66840   0.258E-02    0.226E-02
DAV:  17    -0.760357533710E+02    0.11681E-05   -0.67941E-06 62760   0.152E-02
   1 F= -.76035753E+02 E0= -.76035753E+02  d E =-.760358E+02  mag=     0.0000
