       N       E                     dE             d eps       ncg     rms          rms(c)
DAV:   1     0.615790027956E+04    0.61579E+04   -0.23868E+05 73264   0.164E+03
DAV:   2     0.319457232608E+03   -0.58384E+04   -0.54406E+04 73844   0.493E+02
DAV:   3    -0.699823606601E+03   -0.10193E+04   -0.99169E+03 75304   0.215E+02
DAV:   4    -0.743604538714E+03   -0.43781E+02   -0.43442E+02 84544   0.503E+01
DAV:   5    -0.744931490545E+03   -0.13270E+01   -0.13221E+01 87912   0.962E+00    0.122E+02
DAV:   6    -0.413785195360E+03    0.33115E+03   -0.38874E+02 89904   0.830E+01    0.303E+01
DAV:   7    -0.444084994486E+03   -0.30300E+02   -0.89246E+01 77952   0.199E+01    0.286E+01
DAV:   8    -0.448516770983E+03   -0.44318E+01   -0.31781E+00 82336   0.566E+00    0.220E+01
DAV:   9    -0.469666540015E+03   -0.21150E+02   -0.67459E+00 76064   0.512E+00    0.789E+00
DAV:  10    -0.489383523652E+03   -0.19717E+02   -0.79608E+00 76436   0.471E+00    0.564E+00
DAV:  11    -0.506848616572E+03   -0.17465E+02   -0.10912E+01 79068   0.540E+00    0.601E+00
DAV:  12    -0.515218094040E+03   -0.83695E+01   -0.84580E+00 79064   0.491E+00    0.266E+00
DAV:  13    -0.518297952076E+03   -0.30799E+01   -0.47579E+00 76452   0.342E+00    0.224E+00
DAV:  14    -0.518385917591E+03   -0.87966E-01   -0.12687E-01 79296   0.894E-01    0.105E+00
DAV:  15    -0.518412792767E+03   -0.26875E-01   -0.26516E-02 77696   0.393E-01    0.755E-01
DAV:  16    -0.518422533214E+03   -0.97404E-02   -0.68584E-03 79360   0.251E-01    0.218E-01
DAV:  17    -0.518424119825E+03   -0.15866E-02   -0.13545E-03 77436   0.100E-01    0.702E-02
DAV:  18    -0.518424410542E+03   -0.29072E-03   -0.26558E-04 77748   0.503E-02    0.301E-02
DAV:  19    -0.518424489959E+03   -0.79418E-04   -0.62996E-05 64444   0.308E-02    0.195E-02
DAV:  20    -0.518424511042E+03   -0.21082E-04   -0.18759E-05 44656   0.154E-02    0.104E-02
DAV:  21    -0.518424520919E+03   -0.98777E-05   -0.86435E-06 38396   0.116E-02
   1 F= -.51842452E+03 E0= -.51842452E+03  d E =-.518425E+03  mag=    -0.0000
