       N       E                     dE             d eps       ncg     rms          rms(c)
DAV:   1     0.418446595635E+04    0.41845E+04   -0.19058E+05 97000   0.187E+03
DAV:   2     0.700494684836E+02   -0.41144E+04   -0.38365E+04100168   0.548E+02
DAV:   3    -0.438468977298E+03   -0.50852E+03   -0.47454E+03 93024   0.206E+02
DAV:   4    -0.456090216636E+03   -0.17621E+02   -0.17502E+02 94016   0.401E+01
DAV:   5    -0.456310552049E+03   -0.22034E+00   -0.22005E+00 96144   0.452E+00    0.981E+00
DAV:   6    -0.362558880806E+03    0.93752E+02   -0.35119E+01 93712   0.165E+01    0.123E+01
DAV:   7    -0.362327736778E+03    0.23114E+00   -0.57064E-01 94192   0.315E+00    0.568E+00
DAV:   8    -0.362191800470E+03    0.13594E+00   -0.22712E-01 93936   0.183E+00    0.295E+00
DAV:   9    -0.362172336439E+03    0.19464E-01   -0.16479E-02 95792   0.485E-01    0.288E+00
DAV:  10    -0.362140593699E+03    0.31743E-01   -0.31574E-02 93936   0.523E-01    0.204E+00
DAV:  11    -0.362120544310E+03    0.20049E-01   -0.19441E-02 94016   0.395E-01    0.143E+00
DAV:  12    -0.362113236194E+03    0.73081E-02   -0.52480E-03 93928   0.210E-01    0.110E+00
DAV:  13    -0.362109344465E+03    0.38917E-02   -0.22002E-03 94016   0.135E-01    0.874E-01
DAV:  14    -0.362105412998E+03    0.39315E-02   -0.44629E-03 93824   0.194E-01    0.555E-01
DAV:  15    -0.362103218658E+03    0.21943E-02   -0.75195E-03 93912   0.252E-01    0.139E-01
DAV:  16    -0.362103132675E+03    0.85983E-04   -0.20986E-04 98920   0.449E-02    0.846E-02
DAV:  17    -0.362103108185E+03    0.24490E-04   -0.54275E-05 81264   0.228E-02    0.451E-02
DAV:  18    -0.362103103006E+03    0.51788E-05   -0.10057E-05 50624   0.103E-02
   1 F= -.36210310E+03 E0= -.36210310E+03  d E =-.362103E+03  mag=    -0.0000
