       N       E                     dE             d eps       ncg     rms          rms(c)
DAV:   1     0.690410717868E+03    0.69041E+03   -0.40178E+04137808   0.202E+03
DAV:   2    -0.215997283923E+02   -0.71201E+03   -0.69345E+03126090   0.590E+02
DAV:   3    -0.652749233070E+02   -0.43675E+02   -0.43357E+02141390   0.167E+02
DAV:   4    -0.659367722589E+02   -0.66185E+00   -0.66149E+00124614   0.225E+01
DAV:   5    -0.659508589259E+02   -0.14087E-01   -0.14086E-01141777   0.329E+00    0.607E+00
DAV:   6    -0.500964126735E+02    0.15854E+02   -0.98694E+00116316   0.276E+01    0.802E+00
DAV:   7    -0.499692593527E+02    0.12715E+00   -0.22445E-01135504   0.479E+00    0.305E+00
DAV:   8    -0.499328245036E+02    0.36435E-01   -0.39164E-02124443   0.167E+00    0.230E+00
DAV:   9    -0.499083005413E+02    0.24524E-01   -0.34801E-02129204   0.174E+00    0.128E+00
DAV:  10    -0.499040578019E+02    0.42427E-02   -0.31513E-03131715   0.553E-01    0.100E+00
DAV:  11    -0.499013996246E+02    0.26582E-02   -0.16702E-03126288   0.390E-01    0.785E-01
DAV:  12    -0.498987175999E+02    0.26820E-02   -0.35349E-03127179   0.563E-01    0.473E-01
DAV:  13    -0.498973803312E+02    0.13373E-02   -0.36678E-03126540   0.573E-01    0.161E-01
DAV:  14    -0.498972442763E+02    0.13605E-03   -0.52749E-04134190   0.218E-01    0.462E-02
DAV:  15    -0.498972392130E+02    0.50632E-05   -0.22405E-05 76365   0.491E-02
   1 F= -.49897239E+02 E0= -.49897239E+02  d E =-.498972E+02  mag=     0.0000
       N       E                     dE             d eps       ncg     rms          rms(c)
DAV:   1    -0.499195019898E+02   -0.22258E-01   -0.46638E-01119439   0.813E+00    0.151E+00
DAV:   2    -0.498980448746E+02    0.21457E-01   -0.92493E-02120456   0.413E+00    0.102E+00
DAV:   3    -0.498975156908E+02    0.52918E-03   -0.29434E-03116820   0.416E-01    0.429E-01
DAV:   4    -0.498971362400E+02    0.37945E-03   -0.19620E-04137871   0.108E-01    0.229E-01
DAV:   5    -0.498968733626E+02    0.26288E-03   -0.41781E-05128637   0.844E-02    0.493E-02
DAV:   6    -0.498968550520E+02    0.18311E-04   -0.11229E-05 89883   0.399E-02    0.123E-02
DAV:   7    -0.498968554018E+02   -0.34988E-06   -0.22641E-06 60030   0.155E-02
   2 F= -.49896855E+02 E0= -.49896855E+02  d E =0.383811E-03  mag=     0.0000
       N       E                     dE             d eps       ncg     rms          rms(c)
DAV:   1    -0.499089955240E+02   -0.12140E-01   -0.24231E-01119439   0.584E+00    0.107E+00
DAV:   2    -0.498977799603E+02    0.11216E-01   -0.48294E-02120942   0.291E+00    0.716E-01
DAV:   3    -0.498974991053E+02    0.28085E-03   -0.14516E-03116568   0.296E-01    0.305E-01
DAV:   4    -0.498973422719E+02    0.15683E-03   -0.96272E-05137466   0.755E-02    0.160E-01
DAV:   5    -0.498972588222E+02    0.83450E-04   -0.18702E-05 94788   0.612E-02    0.335E-02
DAV:   6    -0.498972623221E+02   -0.34999E-05   -0.86865E-06 77229   0.366E-02
   3 F= -.49897262E+02 E0= -.49897262E+02  d E =-.231090E-04  mag=     0.0000
