       N       E                     dE             d eps       ncg     rms          rms(c)
DAV:   1     0.860996042164E+03    0.86100E+03   -0.35298E+04108192   0.166E+03
DAV:   2    -0.112648078774E+01   -0.86212E+03   -0.82826E+03120120   0.518E+02
DAV:   3    -0.978736096427E+02   -0.96747E+02   -0.94962E+02128592   0.179E+02
DAV:   4    -0.100921743563E+03   -0.30481E+01   -0.30003E+01128048   0.372E+01
DAV:   5    -0.101009686556E+03   -0.87943E-01   -0.87632E-01126288   0.664E+00    0.326E+01
DAV:   6    -0.743797789724E+02    0.26630E+02   -0.46437E+01147288   0.572E+01    0.192E+01
DAV:   7    -0.761639366391E+02   -0.17842E+01   -0.89086E+00152288   0.302E+01    0.270E+01
DAV:   8    -0.757426270086E+02    0.42131E+00   -0.37146E+00148168   0.199E+01    0.968E+00
DAV:   9    -0.772202927539E+02   -0.14777E+01   -0.50265E-01151184   0.599E+00    0.724E+00
DAV:  10    -0.777945473167E+02   -0.57425E+00   -0.28189E-01132784   0.524E+00    0.465E+00
DAV:  11    -0.782355736966E+02   -0.44103E+00   -0.15836E-01154784   0.467E+00    0.206E+00
DAV:  12    -0.783243861015E+02   -0.88812E-01   -0.65540E-02148720   0.265E+00    0.122E+00
DAV:  13    -0.783239147267E+02    0.47137E-03   -0.14753E-02130520   0.126E+00    0.726E-01
DAV:  14    -0.783329388187E+02   -0.90241E-02   -0.74087E-03134128   0.886E-01    0.365E-01
DAV:  15    -0.783358289433E+02   -0.28901E-02   -0.16659E-03137208   0.378E-01    0.210E-01
DAV:  16    -0.783362945977E+02   -0.46565E-03   -0.48744E-04145688   0.267E-01    0.116E-01
DAV:  17    -0.783374091908E+02   -0.11146E-02   -0.22490E-04145600   0.164E-01    0.675E-02
DAV:  18    -0.783374503582E+02   -0.41167E-04   -0.48955E-05117224   0.728E-02    0.533E-02
DAV:  19    -0.783374563428E+02   -0.59847E-05   -0.52153E-05139032   0.874E-02
   1 F= -.78337456E+02 E0= -.78337456E+02  d E =-.783375E+02  mag=     0.0002
       N       E                     dE             d eps       ncg     rms          rms(c)
DAV:   1    -0.794509412849E+02   -0.11135E+01   -0.40433E+01107808   0.514E+01    0.926E+00
DAV:   2    -0.784862986336E+02    0.96464E+00   -0.37921E+00106736   0.128E+01    0.404E+00
DAV:   3    -0.783504301736E+02    0.13587E+00   -0.57256E-01113840   0.794E+00    0.142E+00
DAV:   4    -0.783606044992E+02   -0.10174E-01   -0.25615E-02138776   0.136E+00    0.691E-01
DAV:   5    -0.783539286147E+02    0.66759E-02   -0.24295E-03124064   0.517E-01    0.394E-01
DAV:   6    -0.783580567052E+02   -0.41281E-02   -0.10914E-03114208   0.347E-01    0.821E-02
DAV:   7    -0.783577870852E+02    0.26962E-03   -0.81868E-05128776   0.813E-02    0.320E-02
DAV:   8    -0.783578096845E+02   -0.22599E-04   -0.50368E-06 60360   0.339E-02    0.264E-02
DAV:   9    -0.783578145651E+02   -0.48806E-05   -0.15807E-05 76664   0.501E-02
   2 F= -.78357815E+02 E0= -.78357815E+02  d E =-.203582E-01  mag=     0.0000
       N       E                     dE             d eps       ncg     rms          rms(c)
DAV:   1    -0.785932734346E+02   -0.23546E+00   -0.68466E+00106976   0.210E+01    0.388E+00
DAV:   2    -0.783961778478E+02    0.19710E+00   -0.62644E-01106560   0.514E+00    0.161E+00
DAV:   3    -0.783805736687E+02    0.15604E-01   -0.10653E-01117568   0.323E+00    0.492E-01
DAV:   4    -0.783764418010E+02    0.41319E-02   -0.35679E-03129440   0.532E-01    0.254E-01
DAV:   5    -0.783783742599E+02   -0.19325E-02   -0.33627E-04124128   0.186E-01    0.159E-01
DAV:   6    -0.783774234663E+02    0.95079E-03   -0.21428E-04118784   0.130E-01    0.425E-02
DAV:   7    -0.783774074731E+02    0.15993E-04   -0.15766E-05 85464   0.378E-02    0.160E-02
DAV:   8    -0.783774465646E+02   -0.39091E-04   -0.30395E-06 56064   0.202E-02    0.136E-02
DAV:   9    -0.783774638671E+02   -0.17303E-04   -0.48202E-06 66568   0.294E-02    0.115E-02
DAV:  10    -0.783774771007E+02   -0.13234E-04   -0.11222E-05 83504   0.293E-02    0.105E-02
DAV:  11    -0.783774781678E+02   -0.10672E-05   -0.77508E-06 75072   0.345E-02
   3 F= -.78377478E+02 E0= -.78377478E+02  d E =-.400218E-01  mag=    -0.0000
       N       E                     dE             d eps       ncg     rms          rms(c)
DAV:   1    -0.783775014850E+02   -0.24384E-04   -0.44835E-05118624   0.765E-02    0.117E-02
DAV:   2    -0.783775081858E+02   -0.67009E-05   -0.11090E-05 72528   0.284E-02    0.628E-03
DAV:   3    -0.783775056172E+02    0.25687E-05   -0.93424E-07 53992   0.972E-03    0.483E-03
DAV:   4    -0.783775072450E+02   -0.16278E-05   -0.36227E-07 53808   0.578E-03    0.402E-03
DAV:   5    -0.783775077655E+02   -0.52048E-06   -0.21638E-07 53720   0.428E-03    0.365E-03
DAV:   6    -0.783775086573E+02   -0.89186E-06   -0.23110E-07 53592   0.561E-03
   4 F= -.78377509E+02 E0= -.78377509E+02  d E =-.400523E-01  mag=    -0.0000
       N       E                     dE             d eps       ncg     rms          rms(c)
DAV:   1    -0.783775108061E+02   -0.30406E-05   -0.29916E-06 53736   0.197E-02    0.439E-03
DAV:   2    -0.783775092587E+02    0.15474E-05   -0.15909E-06 59776   0.907E-03    0.259E-03
DAV:   3    -0.783775103018E+02   -0.10431E-05   -0.17399E-07 53664   0.410E-03    0.250E-03
DAV:   4    -0.783775105492E+02   -0.24736E-06   -0.14612E-07 53584   0.280E-03    0.241E-03
DAV:   5    -0.783775106026E+02   -0.53467E-07   -0.75150E-08 53624   0.169E-03    0.215E-03
DAV:   6    -0.783775105085E+02    0.94169E-07   -0.45339E-08 53648   0.301E-03
   5 F= -.78377511E+02 E0= -.78377511E+02  d E =-.400542E-01  mag=    -0.0000
       N       E                     dE             d eps       ncg     rms          rms(c)
DAV:   1    -0.783777582083E+02   -0.24761E-03   -0.11818E-01106576   0.234E+00    0.140E-01
DAV:   2    -0.783778934275E+02   -0.13522E-03   -0.36147E-03109800   0.431E-01    0.689E-02
DAV:   3    -0.783779585596E+02   -0.65132E-04   -0.16787E-04131112   0.124E-01    0.302E-02
DAV:   4    -0.783778307953E+02    0.12776E-03   -0.14369E-05 66696   0.418E-02    0.186E-02
DAV:   5    -0.783778790022E+02   -0.48207E-04   -0.64866E-06 55744   0.256E-02    0.814E-03
DAV:   6    -0.783778622723E+02    0.16730E-04   -0.26936E-06 54480   0.152E-02    0.576E-03
DAV:   7    -0.783778582398E+02    0.40325E-05   -0.97347E-07 53808   0.916E-03
   6 F= -.78377858E+02 E0= -.78377858E+02  d E =-.347731E-03  mag=    -0.0000
       N       E                     dE             d eps       ncg     rms          rms(c)
DAV:   1    -0.783777571385E+02    0.10513E-03   -0.10635E+00106560   0.703E+00    0.422E-01
DAV:   2    -0.783787772144E+02   -0.10201E-02   -0.32553E-02109752   0.129E+00    0.207E-01
DAV:   3    -0.783787018739E+02    0.75341E-04   -0.15055E-03131800   0.373E-01    0.910E-02
DAV:   4    -0.783782913757E+02    0.41050E-03   -0.16785E-04146752   0.124E-01    0.518E-02
DAV:   5    -0.783784504511E+02   -0.15908E-03   -0.35889E-05103696   0.612E-02    0.232E-02
DAV:   6    -0.783783872152E+02    0.63236E-04   -0.89518E-06 58448   0.353E-02    0.160E-02
DAV:   7    -0.783783866077E+02    0.60755E-06   -0.44796E-06 62120   0.207E-02
   7 F= -.78378387E+02 E0= -.78378387E+02  d E =-.876099E-03  mag=    -0.0000
       N       E                     dE             d eps       ncg     rms          rms(c)
DAV:   1    -0.783785822720E+02   -0.19506E-03   -0.49141E-02106568   0.147E+00    0.955E-02
DAV:   2    -0.783786042874E+02   -0.22015E-04   -0.15356E-03106744   0.266E-01    0.388E-02
DAV:   3    -0.783786750168E+02   -0.70729E-04   -0.84247E-05116128   0.858E-02    0.166E-02
DAV:   4    -0.783785912192E+02    0.83798E-04   -0.38377E-06 56800   0.233E-02    0.125E-02
DAV:   5    -0.783786259820E+02   -0.34763E-04   -0.28739E-06 54392   0.153E-02    0.938E-03
DAV:   6    -0.783786165142E+02    0.94678E-05   -0.16639E-06 54128   0.171E-02
   8 F= -.78378617E+02 E0= -.78378617E+02  d E =-.229907E-03  mag=    -0.0000
       N       E                     dE             d eps       ncg     rms          rms(c)
DAV:   1    -0.783791153295E+02   -0.48935E-03   -0.44132E-01106560   0.441E+00    0.284E-01
DAV:   2    -0.783793049412E+02   -0.18961E-03   -0.13706E-02106568   0.792E-01    0.112E-01
DAV:   3    -0.783794306500E+02   -0.12571E-03   -0.70417E-04122832   0.248E-01    0.398E-02
DAV:   4    -0.783791708168E+02    0.25983E-03   -0.34916E-05103392   0.587E-02    0.247E-02
DAV:   5    -0.783792906576E+02   -0.11984E-03   -0.89757E-06 55880   0.302E-02    0.136E-02
DAV:   6    -0.783792318700E+02    0.58788E-04   -0.50162E-06 54768   0.237E-02    0.722E-03
DAV:   7    -0.783792240182E+02    0.78518E-05   -0.27748E-06 54192   0.138E-02
   9 F= -.78379224E+02 E0= -.78379224E+02  d E =-.837411E-03  mag=    -0.0000
       N       E                     dE             d eps       ncg     rms          rms(c)
DAV:   1    -0.783803710480E+02   -0.11392E-02   -0.17650E+00106560   0.881E+00    0.569E-01
DAV:   2    -0.783806588794E+02   -0.28783E-03   -0.54739E-02106560   0.158E+00    0.223E-01
DAV:   3    -0.783806209612E+02    0.37918E-04   -0.28019E-03123152   0.501E-01    0.797E-02
DAV:   4    -0.783800983519E+02    0.52261E-03   -0.15713E-04153360   0.117E-01    0.478E-02
DAV:   5    -0.783803337936E+02   -0.23544E-03   -0.21168E-05 67832   0.480E-02    0.256E-02
DAV:   6    -0.783802191769E+02    0.11462E-03   -0.14382E-05 58072   0.395E-02    0.130E-02
DAV:   7    -0.783802039346E+02    0.15242E-04   -0.77822E-06 73120   0.205E-02    0.104E-02
DAV:   8    -0.783802094033E+02   -0.54687E-05   -0.10588E-06 54488   0.155E-02
  10 F= -.78380209E+02 E0= -.78380209E+02  d E =-.182280E-02  mag=    -0.0000
