       N       E                     dE             d eps       ncg     rms          rms(c)
DAV:   1     0.100369143731E+04    0.10037E+04   -0.41861E+04158560   0.222E+03
DAV:   2     0.415144951881E+02   -0.96218E+03   -0.92331E+03171496   0.639E+02
DAV:   3    -0.742112675824E+02   -0.11573E+03   -0.11275E+03164780   0.215E+02
DAV:   4    -0.779804508598E+02   -0.37692E+01   -0.37575E+01166740   0.406E+01
DAV:   5    -0.780451126659E+02   -0.64662E-01   -0.64644E-01178104   0.532E+00    0.389E+00
DAV:   6    -0.593560652067E+02    0.18689E+02   -0.75103E+00163444   0.171E+01    0.494E+00
DAV:   7    -0.592817733240E+02    0.74292E-01   -0.16279E-01164360   0.277E+00    0.196E+00
DAV:   8    -0.592558486196E+02    0.25925E-01   -0.39336E-02165412   0.129E+00    0.126E+00
DAV:   9    -0.592485691502E+02    0.72795E-02   -0.40377E-03162884   0.408E-01    0.107E+00
DAV:  10    -0.592421251002E+02    0.64440E-02   -0.39657E-03164268   0.456E-01    0.806E-01
DAV:  11    -0.592367310281E+02    0.53941E-02   -0.57951E-03163952   0.513E-01    0.534E-01
DAV:  12    -0.592350796630E+02    0.16514E-02   -0.12802E-03164276   0.226E-01    0.423E-01
DAV:  13    -0.592350297404E+02    0.49923E-04   -0.12979E-05 92488   0.293E-02    0.414E-01
DAV:  14    -0.592344775596E+02    0.55218E-03   -0.22106E-04164504   0.103E-01    0.348E-01
DAV:  15    -0.592332521114E+02    0.12254E-02   -0.24415E-03163784   0.337E-01    0.135E-01
DAV:  16    -0.592330137439E+02    0.23837E-03   -0.79990E-04164856   0.188E-01    0.336E-02
DAV:  17    -0.592330038819E+02    0.98621E-05   -0.94785E-05154664   0.680E-02
   1 F= -.59233004E+02 E0= -.59233004E+02  d E =-.592330E+02  mag=     0.0000
