       N       E                     dE             d eps       ncg     rms          ort
DAV:   1     0.244894326651E+04    0.24489E+04   -0.87541E+04 22672   0.196E+03
DAV:   2     0.193589991297E+03   -0.22554E+04   -0.20775E+04 22672   0.564E+02
DAV:   3    -0.204627601905E+03   -0.39822E+03   -0.38389E+03 22672   0.244E+02
DAV:   4    -0.228838937838E+03   -0.24211E+02   -0.23719E+02 22672   0.617E+01
DAV:   5    -0.229549310430E+03   -0.71037E+00   -0.70666E+00 22672   0.116E+01
SDA:   6    -0.160640312632E+03    0.68909E+02   -0.70666E+00 22672   0.190E+03 0.000E+00
CGA:   7    -0.182903876050E+03   -0.22264E+02   -0.23371E+02 22672   0.167E+02-0.157E+01
CGA:   8    -0.185584975758E+03   -0.26811E+01   -0.26907E+01 22672   0.387E+01 0.146E+00
CGA:   9    -0.186564448538E+03   -0.97947E+00   -0.96875E+00 22672   0.161E+01 0.148E+00
CGA:  10    -0.186993685361E+03   -0.42924E+00   -0.42684E+00 22672   0.671E+00 0.266E-01
CGA:  11    -0.187166852054E+03   -0.17317E+00   -0.17415E+00 22672   0.202E+00-0.203E-01
CGA:  12    -0.187216036252E+03   -0.49184E-01   -0.49363E-01 22672   0.562E-01-0.413E-02
CGA:  13    -0.187229460430E+03   -0.13424E-01   -0.13272E-01 22672   0.139E-01 0.416E-02
CGA:  14    -0.187234101205E+03   -0.46408E-02   -0.44977E-02 22672   0.597E-02 0.150E-02
CGA:  15    -0.187237033238E+03   -0.29320E-02   -0.29632E-02 22672   0.471E-02-0.126E-03
CGA:  16    -0.187238821403E+03   -0.17882E-02   -0.17371E-02 22672   0.258E-02 0.336E-03
CGA:  17    -0.187239987270E+03   -0.11659E-02   -0.12237E-02 22672   0.168E-02-0.272E-03
CGA:  18    -0.187240620877E+03   -0.63361E-03   -0.64789E-03 22672   0.104E-02-0.766E-04
CGA:  19    -0.187240828295E+03   -0.20742E-03   -0.22079E-03 22672   0.538E-03 0.476E-03
CGA:  20    -0.187240926857E+03   -0.98563E-04   -0.13304E-03 22672   0.279E-03 0.430E-03
CGA:  21    -0.187241001662E+03   -0.74805E-04   -0.72392E-04 22672   0.150E-03 0.172E-03
CGA:  22    -0.187241004535E+03   -0.28725E-05   -0.18995E-04 22672   0.129E-03 0.135E-03
CGA:  23    -0.187241009780E+03   -0.52454E-05   -0.17576E-04 22672   0.114E-03 0.118E-03
CGA:  24    -0.187241011522E+03   -0.17423E-05   -0.13837E-04 22672   0.104E-03 0.106E-03
CGA:  25    -0.187241010357E+03    0.11651E-05   -0.11029E-04 22672   0.983E-04 0.984E-04
   1 F= -.18724101E+03 E0= -.18724101E+03  d E =-.187241E+03  mag=    16.0000
       N       E                     dE             d eps       ncg     rms          ort
SDA:   1    -0.187223200779E+03    0.17811E-01    0.00000E+00 22672   0.576E-01 0.000E+00
CGA:   2    -0.187234410839E+03   -0.11210E-01   -0.11170E-01 22672   0.283E-01-0.173E-02
CGA:   3    -0.187240376687E+03   -0.59658E-02   -0.59669E-02 22672   0.636E-02-0.903E-03
CGA:   4    -0.187241424814E+03   -0.10481E-02   -0.10613E-02 22672   0.102E-02 0.301E-03
CGA:   5    -0.187241663552E+03   -0.23874E-03   -0.23834E-03 22672   0.318E-03 0.421E-04
CGA:   6    -0.187241716434E+03   -0.52882E-04   -0.56712E-04 22672   0.102E-03 0.902E-04
CGA:   7    -0.187241718334E+03   -0.18998E-05   -0.12487E-04 22672   0.644E-04 0.912E-04
   2 F= -.18724172E+03 E0= -.18724172E+03  d E =-.707977E-03  mag=    16.0000
       N       E                     dE             d eps       ncg     rms          ort
SDA:   1    -0.187241261307E+03    0.45513E-03    0.00000E+00 22672   0.134E-02 0.000E+00
CGA:   2    -0.187241547736E+03   -0.28643E-03   -0.29093E-03 22672   0.813E-03-0.255E-03
CGA:   3    -0.187241674297E+03   -0.12656E-03   -0.12647E-03 22672   0.206E-03-0.110E-04
CGA:   4    -0.187241686163E+03   -0.11866E-04   -0.20897E-04 22672   0.699E-04 0.933E-04
CGA:   5    -0.187241685446E+03    0.71663E-06   -0.68975E-05 22672   0.347E-04 0.601E-04
CGA:   6    -0.187241684153E+03    0.12937E-05   -0.23188E-05 22672   0.274E-04 0.297E-04
   3 F= -.18724168E+03 E0= -.18724168E+03  d E =-.673795E-03  mag=    16.0000
