       N       E                     dE             d eps       ncg     rms          rms(c)
DAV:   1     0.887606081634E+03    0.88761E+03   -0.44946E+04 88520   0.169E+03
DAV:   2    -0.254157665338E+02   -0.91302E+03   -0.84973E+03 99032   0.493E+02
DAV:   3    -0.106866492143E+03   -0.81451E+02   -0.77600E+02 94200   0.164E+02
DAV:   4    -0.108775952078E+03   -0.19095E+01   -0.19033E+01 94696   0.275E+01
DAV:   5    -0.108826997584E+03   -0.51046E-01   -0.51040E-01 99144   0.429E+00    0.661E+00
DAV:   6    -0.837007202495E+02    0.25126E+02   -0.10904E+01 88824   0.186E+01    0.455E+00
DAV:   7    -0.835540762748E+02    0.14664E+00   -0.36828E-01125464   0.546E+00    0.305E+00
DAV:   8    -0.835354838547E+02    0.18592E-01   -0.36947E-02 89496   0.166E+00    0.203E+00
DAV:   9    -0.835232156004E+02    0.12268E-01   -0.11848E-02 94208   0.594E-01    0.161E+00
DAV:  10    -0.835195825655E+02    0.36330E-02   -0.19702E-03 88416   0.276E-01    0.132E+00
DAV:  11    -0.835145099205E+02    0.50726E-02   -0.46891E-03 90200   0.368E-01    0.940E-01
DAV:  12    -0.835132843324E+02    0.12256E-02   -0.57754E-04 92568   0.138E-01    0.798E-01
DAV:  13    -0.835109764451E+02    0.23079E-02   -0.32265E-03 88672   0.309E-01    0.470E-01
DAV:  14    -0.835099801669E+02    0.99628E-03   -0.27645E-03 90248   0.288E-01    0.156E-01
DAV:  15    -0.835098859242E+02    0.94243E-04   -0.27317E-04 93160   0.916E-02    0.586E-02
DAV:  16    -0.835098728919E+02    0.13032E-04   -0.48088E-05 77560   0.377E-02    0.155E-02
DAV:  17    -0.835098725191E+02    0.37286E-06   -0.42699E-06 43392   0.135E-02
   1 F= -.83509873E+02 E0= -.83509873E+02  d E =-.835099E+02  mag=     0.0000
