       N       E                     dE             d eps       ncg     rms          rms(c)
DAV:   1     0.650300383422E+03    0.65030E+03   -0.31399E+04100641   0.187E+03
DAV:   2    -0.582955540038E+01   -0.65613E+03   -0.60924E+03106947   0.535E+02
DAV:   3    -0.723893262679E+02   -0.66560E+02   -0.65054E+02115029   0.178E+02
DAV:   4    -0.739385166273E+02   -0.15492E+01   -0.15450E+01111240   0.280E+01
DAV:   5    -0.739645755721E+02   -0.26059E-01   -0.26053E-01109389   0.391E+00    0.567E+00
DAV:   6    -0.595187060654E+02    0.14446E+02   -0.77443E+00109278   0.198E+01    0.766E+00
DAV:   7    -0.594908296255E+02    0.27876E-01   -0.21045E-01103920   0.343E+00    0.291E+00
DAV:   8    -0.594592847625E+02    0.31545E-01   -0.51943E-02111024   0.157E+00    0.199E+00
DAV:   9    -0.594506839644E+02    0.86008E-02   -0.68569E-03110160   0.649E-01    0.146E+00
DAV:  10    -0.594442271550E+02    0.64568E-02   -0.67348E-03109203   0.638E-01    0.986E-01
DAV:  11    -0.594407774348E+02    0.34497E-02   -0.43185E-03111138   0.500E-01    0.612E-01
DAV:  12    -0.594400737370E+02    0.70370E-03   -0.42655E-04111645   0.149E-01    0.509E-01
DAV:  13    -0.594388933770E+02    0.11804E-02   -0.19279E-03108174   0.338E-01    0.265E-01
DAV:  14    -0.594384477525E+02    0.44562E-03   -0.13704E-03111996   0.285E-01    0.592E-02
DAV:  15    -0.594384170036E+02    0.30749E-04   -0.95075E-05112884   0.731E-02    0.102E-02
DAV:  16    -0.594384156687E+02    0.13349E-05   -0.78729E-07 53112   0.779E-03
   1 F= -.59438416E+02 E0= -.59438416E+02  d E =-.594384E+02  mag=     0.0000
