       N       E                     dE             d eps       ncg     rms          rms(c)
DAV:   1     0.751606821123E+03    0.75161E+03   -0.34115E+04111051   0.229E+03
DAV:   2     0.180679282371E+02   -0.73354E+03   -0.69155E+03112248   0.641E+02
DAV:   3    -0.626437611004E+02   -0.80712E+02   -0.79791E+02128484   0.202E+02
DAV:   4    -0.644477618349E+02   -0.18040E+01   -0.18015E+01116928   0.335E+01
DAV:   5    -0.644819387713E+02   -0.34177E-01   -0.34176E-01137988   0.432E+00    0.369E+00
DAV:   6    -0.508904938426E+02    0.13591E+02   -0.64534E+00108954   0.182E+01    0.417E+00
DAV:   7    -0.508165607132E+02    0.73933E-01   -0.15804E-01123831   0.305E+00    0.178E+00
DAV:   8    -0.507939259582E+02    0.22635E-01   -0.28920E-02114570   0.119E+00    0.131E+00
DAV:   9    -0.507807169898E+02    0.13209E-01   -0.13785E-02121581   0.850E-01    0.852E-01
DAV:  10    -0.507769271798E+02    0.37898E-02   -0.26188E-03120276   0.410E-01    0.652E-01
DAV:  11    -0.507752443443E+02    0.16828E-02   -0.79380E-04117783   0.226E-01    0.541E-01
DAV:  12    -0.507731960856E+02    0.20483E-02   -0.20249E-03114993   0.351E-01    0.360E-01
DAV:  13    -0.507724437955E+02    0.75229E-03   -0.66561E-04124389   0.196E-01    0.264E-01
DAV:  14    -0.507717262452E+02    0.71755E-03   -0.21087E-03110952   0.360E-01    0.782E-02
DAV:  15    -0.507716893618E+02    0.36883E-04   -0.36780E-04125829   0.146E-01    0.127E-02
DAV:  16    -0.507716944215E+02   -0.50597E-05   -0.90075E-06 65592   0.241E-02
   1 F= -.50771694E+02 E0= -.50771694E+02  d E =-.507717E+02  mag=    -0.0000
