       N       E                     dE             d eps       ncg     rms          ort
DAV:   1     0.299287316806E+04    0.29929E+04   -0.13304E+05 39520   0.185E+03
DAV:   2     0.104886827392E+03   -0.28880E+04   -0.26576E+04 39520   0.515E+02
DAV:   3    -0.303490231745E+03   -0.40838E+03   -0.38777E+03 39520   0.204E+02
DAV:   4    -0.321418923639E+03   -0.17929E+02   -0.17760E+02 39520   0.455E+01
DAV:   5    -0.321827590710E+03   -0.40867E+00   -0.40763E+00 39520   0.760E+00
SDA:   6    -0.257371356794E+03    0.64456E+02   -0.40763E+00 39520   0.154E+02 0.000E+00
CGA:   7    -0.259793148214E+03   -0.24218E+01   -0.24260E+01 39520   0.175E+01 0.313E-01
CGA:   8    -0.260125142464E+03   -0.33199E+00   -0.33224E+00 39520   0.613E+00 0.282E-01
CGA:   9    -0.260242906266E+03   -0.11776E+00   -0.11788E+00 39520   0.202E+00 0.149E-01
CGA:  10    -0.260287143890E+03   -0.44238E-01   -0.44148E-01 39520   0.828E-01 0.550E-02
CGA:  11    -0.260307368519E+03   -0.20225E-01   -0.20168E-01 39520   0.410E-01 0.134E-02
CGA:  12    -0.260318755661E+03   -0.11387E-01   -0.11463E-01 39520   0.164E-01-0.105E-02
CGA:  13    -0.260322626672E+03   -0.38710E-02   -0.38829E-02 39520   0.563E-02-0.315E-03
CGA:  14    -0.260323859265E+03   -0.12326E-02   -0.12257E-02 39520   0.124E-02 0.412E-03
CGA:  15    -0.260324143738E+03   -0.28447E-03   -0.28280E-03 39520   0.329E-03 0.286E-03
CGA:  16    -0.260324212081E+03   -0.68344E-04   -0.72516E-04 39520   0.118E-03 0.151E-03
CGA:  17    -0.260324231619E+03   -0.19538E-04   -0.25113E-04 39520   0.615E-04 0.930E-04
CGA:  18    -0.260324243141E+03   -0.11522E-04   -0.11872E-04 39520   0.329E-04 0.387E-04
CGA:  19    -0.260324245916E+03   -0.27749E-05   -0.45566E-05 39520   0.257E-04 0.281E-04
   1 F= -.26032425E+03 E0= -.26032425E+03  d E =-.260324E+03  mag=    24.0000
