       N       E                     dE             d eps       ncg     rms          ort
DAV:   1     0.491637810929E+04    0.49164E+04   -0.17768E+05 26568   0.200E+03
DAV:   2     0.430844054845E+03   -0.44855E+04   -0.41975E+04 26568   0.556E+02
DAV:   3    -0.399070055136E+03   -0.82991E+03   -0.73992E+03 26568   0.238E+02
DAV:   4    -0.466287642120E+03   -0.67218E+02   -0.65756E+02 26568   0.707E+01
DAV:   5    -0.468823985794E+03   -0.25363E+01   -0.24427E+01 26568   0.144E+01
SDA:   6    -0.379798461321E+03    0.89026E+02   -0.24427E+01 26568   0.228E+02 0.000E+00
CGA:   7    -0.383246806716E+03   -0.34483E+01   -0.34616E+01 26568   0.244E+01 0.132E+00
CGA:   8    -0.383750024739E+03   -0.50322E+00   -0.50295E+00 26568   0.800E+00 0.340E-01
CGA:   9    -0.383919537044E+03   -0.16951E+00   -0.16943E+00 26568   0.247E+00 0.713E-02
CGA:  10    -0.383979726483E+03   -0.60189E-01   -0.59861E-01 26568   0.924E-01 0.760E-02
CGA:  11    -0.384004420791E+03   -0.24694E-01   -0.24505E-01 26568   0.465E-01 0.319E-02
CGA:  12    -0.384017845656E+03   -0.13425E-01   -0.13490E-01 26568   0.194E-01-0.893E-03
CGA:  13    -0.384023168289E+03   -0.53226E-02   -0.52655E-02 26568   0.507E-02 0.800E-03
CGA:  14    -0.384024380783E+03   -0.12125E-02   -0.11963E-02 26568   0.151E-02 0.102E-02
CGA:  15    -0.384024841554E+03   -0.46077E-03   -0.44541E-03 26568   0.529E-03 0.453E-03
CGA:  16    -0.384025073400E+03   -0.23185E-03   -0.21769E-03 26568   0.325E-03 0.136E-03
CGA:  17    -0.384025245039E+03   -0.17164E-03   -0.23345E-03 26568   0.370E-03-0.176E-03
CGA:  18    -0.384025339319E+03   -0.94280E-04   -0.19726E-03 26568   0.609E-03-0.347E-03
CGA:  19    -0.384025402669E+03   -0.63350E-04   -0.83888E-04 26568   0.636E-04 0.181E-03
CGA:  20    -0.384025404886E+03   -0.22166E-05   -0.80819E-05 26568   0.192E-04 0.398E-04
   1 F= -.38402540E+03 E0= -.38402540E+03  d E =-.384025E+03  mag=    18.0000
