       N       E                     dE             d eps       ncg     rms          ort
DAV:   1     0.277366672317E+04    0.27737E+04   -0.90180E+04 26840   0.234E+03
DAV:   2     0.287663402030E+03   -0.24860E+04   -0.23506E+04 26840   0.673E+02
DAV:   3    -0.181952393369E+03   -0.46962E+03   -0.43520E+03 26840   0.266E+02
DAV:   4    -0.213098626151E+03   -0.31146E+02   -0.30778E+02 26840   0.710E+01
DAV:   5    -0.213808756534E+03   -0.71013E+00   -0.70798E+00 26840   0.126E+01
SDA:   6    -0.174352408135E+03    0.39456E+02   -0.70798E+00 26840   0.105E+02 0.000E+00
CGA:   7    -0.176023929589E+03   -0.16715E+01   -0.16761E+01 26840   0.155E+01 0.562E-01
CGA:   8    -0.176271621839E+03   -0.24769E+00   -0.24829E+00 26840   0.539E+00 0.174E-01
CGA:   9    -0.176393813206E+03   -0.12219E+00   -0.12193E+00 26840   0.208E+00 0.938E-02
CGA:  10    -0.176437827587E+03   -0.44014E-01   -0.43979E-01 26840   0.907E-01 0.324E-02
CGA:  11    -0.176459391548E+03   -0.21564E-01   -0.21470E-01 26840   0.321E-01 0.243E-02
CGA:  12    -0.176467470844E+03   -0.80793E-02   -0.80193E-02 26840   0.135E-01 0.132E-02
CGA:  13    -0.176470827230E+03   -0.33564E-02   -0.33375E-02 26840   0.332E-02 0.522E-03
CGA:  14    -0.176471620775E+03   -0.79354E-03   -0.78702E-03 26840   0.725E-03 0.265E-03
CGA:  15    -0.176471764112E+03   -0.14334E-03   -0.14701E-03 26840   0.191E-03 0.217E-03
CGA:  16    -0.176471796474E+03   -0.32362E-04   -0.38471E-04 26840   0.850E-04 0.124E-03
CGA:  17    -0.176471814139E+03   -0.17665E-04   -0.17481E-04 26840   0.384E-04 0.462E-04
CGA:  18    -0.176471822321E+03   -0.81826E-05   -0.79973E-05 26840   0.232E-04 0.284E-04
   1 F= -.17647182E+03 E0= -.17647182E+03  d E =-.176472E+03  mag=    12.0000
       N       E                     dE             d eps       ncg     rms          ort
SDA:   1    -0.176461432212E+03    0.10382E-01    0.00000E+00 26840   0.282E-01 0.000E+00
CGA:   2    -0.176468994659E+03   -0.75624E-02   -0.75035E-02 26840   0.152E-01 0.904E-03
CGA:   3    -0.176471401247E+03   -0.24066E-02   -0.24321E-02 26840   0.314E-02 0.493E-03
CGA:   4    -0.176471904482E+03   -0.50323E-03   -0.50859E-03 26840   0.715E-03 0.114E-03
CGA:   5    -0.176472022042E+03   -0.11756E-03   -0.12047E-03 26840   0.160E-03 0.758E-04
CGA:   6    -0.176472049014E+03   -0.26972E-04   -0.28623E-04 26840   0.388E-04 0.448E-04
CGA:   7    -0.176472058863E+03   -0.98493E-05   -0.98361E-05 26840   0.138E-04 0.900E-05
   2 F= -.17647206E+03 E0= -.17647206E+03  d E =-.236542E-03  mag=    12.0000
