       N       E                     dE             d eps       ncg     rms          ort
DAV:   1     0.434073117786E+04    0.43407E+04   -0.22231E+05 18368   0.173E+03
DAV:   2     0.854988040392E+01   -0.43322E+04   -0.42005E+04 18368   0.483E+02
DAV:   3    -0.585369660962E+03   -0.59392E+03   -0.57751E+03 18368   0.180E+02
DAV:   4    -0.610085830122E+03   -0.24716E+02   -0.24601E+02 18368   0.439E+01
DAV:   5    -0.610856138387E+03   -0.77031E+00   -0.76841E+00 18368   0.845E+00
SDA:   6    -0.144442033618E+03    0.46641E+03   -0.76841E+00 18368   0.113E+04 0.000E+00
CGA:   7    -0.312662312206E+03   -0.16822E+03   -0.15865E+03 18368   0.219E+03-0.441E+02
CGA:   8    -0.352287272244E+03   -0.39625E+02   -0.39189E+02 18368   0.120E+03-0.191E+02
CGA:   9    -0.370618359818E+03   -0.18331E+02   -0.18307E+02 18368   0.550E+02 0.449E+00
CGA:  10    -0.378796732813E+03   -0.81784E+01   -0.82326E+01 18368   0.198E+02 0.510E+00
CGA:  11    -0.381841516617E+03   -0.30448E+01   -0.30479E+01 18368   0.668E+01 0.803E-01
CGA:  12    -0.382990423454E+03   -0.11489E+01   -0.11489E+01 18368   0.265E+01 0.857E-02
CGA:  13    -0.383476654097E+03   -0.48623E+00   -0.48616E+00 18368   0.104E+01-0.133E-01
CGA:  14    -0.383677141017E+03   -0.20049E+00   -0.20054E+00 18368   0.458E+00-0.109E-01
CGA:  15    -0.383770479526E+03   -0.93339E-01   -0.93343E-01 18368   0.199E+00-0.719E-04
CGA:  16    -0.383811943836E+03   -0.41464E-01   -0.41356E-01 18368   0.987E-01 0.661E-02
CGA:  17    -0.383833831540E+03   -0.21888E-01   -0.21690E-01 18368   0.434E-01 0.931E-02
CGA:  18    -0.383843006409E+03   -0.91749E-02   -0.91708E-02 18368   0.189E-01 0.568E-02
CGA:  19    -0.383847969907E+03   -0.49635E-02   -0.48681E-02 18368   0.881E-02 0.276E-02
CGA:  20    -0.383850225886E+03   -0.22560E-02   -0.22311E-02 18368   0.341E-02 0.952E-03
CGA:  21    -0.383851086566E+03   -0.86068E-03   -0.84354E-03 18368   0.151E-02 0.633E-03
CGA:  22    -0.383851414579E+03   -0.32801E-03   -0.33361E-03 18368   0.704E-03 0.526E-03
CGA:  23    -0.383851534460E+03   -0.11988E-03   -0.13939E-03 18368   0.327E-03 0.397E-03
CGA:  24    -0.383851579445E+03   -0.44985E-04   -0.52007E-04 18368   0.147E-03 0.202E-03
CGA:  25    -0.383851585293E+03   -0.58478E-05   -0.16023E-04 18368   0.105E-03 0.123E-03
CGA:  26    -0.383851586885E+03   -0.15926E-05   -0.10096E-04 18368   0.831E-04 0.926E-04
   1 F= -.38385159E+03 E0= -.38385159E+03  d E =-.383852E+03  mag=    -0.0000
       N       E                     dE             d eps       ncg     rms          ort
SDA:   1    -0.383504814397E+03    0.34677E+00    0.00000E+00 18368   0.144E+01 0.000E+00
CGA:   2    -0.383712681320E+03   -0.20787E+00   -0.20786E+00 18368   0.393E+00-0.493E-03
CGA:   3    -0.383809927771E+03   -0.97246E-01   -0.97038E-01 18368   0.195E+00 0.274E-02
CGA:   4    -0.383840282000E+03   -0.30354E-01   -0.30378E-01 18368   0.295E-01 0.888E-03
CGA:   5    -0.383845824008E+03   -0.55420E-02   -0.55443E-02 18368   0.704E-02-0.284E-03
CGA:   6    -0.383847368782E+03   -0.15448E-02   -0.15599E-02 18368   0.224E-02-0.344E-03
CGA:   7    -0.383847912882E+03   -0.54410E-03   -0.55975E-03 18368   0.784E-03-0.198E-03
CGA:   8    -0.383848075865E+03   -0.16298E-03   -0.16189E-03 18368   0.204E-03 0.256E-04
CGA:   9    -0.383848118824E+03   -0.42959E-04   -0.42087E-04 18368   0.661E-04 0.738E-04
CGA:  10    -0.383848136305E+03   -0.17481E-04   -0.17332E-04 18368   0.276E-04 0.349E-04
CGA:  11    -0.383848111509E+03    0.24796E-04   -0.15554E-04 18368   0.316E-03-0.560E-04
CGA:  12    -0.383848156220E+03   -0.44711E-04   -0.48729E-04 18368   0.159E-04 0.213E-04
CGA:  13    -0.383848157803E+03   -0.15829E-05   -0.26990E-05 18368   0.362E-05 0.636E-05
   2 F= -.38384816E+03 E0= -.38384816E+03  d E =0.342908E-02  mag=    -0.0000
       N       E                     dE             d eps       ncg     rms          ort
SDA:   1    -0.383733942804E+03    0.11421E+00    0.00000E+00 18368   0.464E+00 0.000E+00
CGA:   2    -0.383805506350E+03   -0.71564E-01   -0.71558E-01 18368   0.143E+00-0.156E-06
CGA:   3    -0.383840290949E+03   -0.34785E-01   -0.34701E-01 18368   0.683E-01-0.145E-02
CGA:   4    -0.383850854824E+03   -0.10564E-01   -0.10467E-01 18368   0.110E-01-0.669E-03
CGA:   5    -0.383852804865E+03   -0.19500E-02   -0.19582E-02 18368   0.237E-02 0.731E-04
CGA:   6    -0.383853277592E+03   -0.47273E-03   -0.48675E-03 18368   0.658E-03 0.161E-03
CGA:   7    -0.383853420127E+03   -0.14253E-03   -0.15064E-03 18368   0.182E-03 0.112E-03
CGA:   8    -0.383853466083E+03   -0.45956E-04   -0.48175E-04 18368   0.584E-04 0.391E-04
CGA:   9    -0.383853487632E+03   -0.21549E-04   -0.21452E-04 18368   0.276E-04 0.411E-05
CGA:  10    -0.383853492505E+03   -0.48731E-05   -0.57401E-05 18368   0.890E-05 0.101E-04
   3 F= -.38385349E+03 E0= -.38385349E+03  d E =-.190562E-02  mag=    -0.0000
       N       E                     dE             d eps       ncg     rms          ort
SDA:   1    -0.383853246182E+03    0.24145E-03    0.00000E+00 18368   0.988E-03 0.000E+00
CGA:   2    -0.383853403851E+03   -0.15767E-03   -0.15771E-03 18368   0.325E-03 0.471E-06
CGA:   3    -0.383853461567E+03   -0.57717E-04   -0.62081E-04 18368   0.110E-03 0.606E-04
CGA:   4    -0.383853477328E+03   -0.15760E-04   -0.19178E-04 18368   0.207E-04 0.305E-04
CGA:   5    -0.383853482737E+03   -0.54090E-05   -0.55555E-05 18368   0.640E-05 0.336E-05
CGA:   6    -0.383853484948E+03   -0.22118E-05   -0.26390E-05 18368   0.678E-05-0.412E-05
   4 F= -.38385348E+03 E0= -.38385348E+03  d E =-.189806E-02  mag=    -0.0000
       N       E                     dE             d eps       ncg     rms          ort
SDA:   1    -0.383655296076E+03    0.19819E+00    0.00000E+00 18368   0.548E+00 0.000E+00
CGA:   2    -0.383789059074E+03   -0.13376E+00   -0.13375E+00 18368   0.285E+00-0.197E-02
CGA:   3    -0.383841567104E+03   -0.52508E-01   -0.52727E-01 18368   0.706E-01 0.336E-02
CGA:   4    -0.383852303514E+03   -0.10736E-01   -0.10843E-01 18368   0.131E-01 0.111E-02
CGA:   5    -0.383854877670E+03   -0.25742E-02   -0.25739E-02 18368   0.313E-02-0.386E-05
CGA:   6    -0.383855553165E+03   -0.67550E-03   -0.67274E-03 18368   0.880E-03-0.113E-03
CGA:   7    -0.383855787808E+03   -0.23464E-03   -0.24093E-03 18368   0.358E-03-0.139E-03
CGA:   8    -0.383855867019E+03   -0.79210E-04   -0.80224E-04 18368   0.129E-03-0.398E-04
CGA:   9    -0.383855895862E+03   -0.28843E-04   -0.28753E-04 18368   0.367E-04 0.114E-04
CGA:  10    -0.383855906266E+03   -0.10404E-04   -0.10316E-04 18368   0.115E-04 0.544E-05
CGA:  11    -0.383855908141E+03   -0.18750E-05   -0.22750E-05 18368   0.371E-05 0.563E-05
   5 F= -.38385591E+03 E0= -.38385591E+03  d E =-.242319E-02  mag=     0.0000
       N       E                     dE             d eps       ncg     rms          ort
SDA:   1    -0.383853292301E+03    0.26140E-02    0.00000E+00 18368   0.729E-02 0.000E+00
CGA:   2    -0.383855148207E+03   -0.18559E-02   -0.18610E-02 18368   0.399E-02-0.233E-03
CGA:   3    -0.383855750668E+03   -0.60246E-03   -0.62989E-03 18368   0.852E-03 0.382E-03
CGA:   4    -0.383855866021E+03   -0.11535E-03   -0.12979E-03 18368   0.150E-03 0.157E-03
CGA:   5    -0.383855900193E+03   -0.34172E-04   -0.34659E-04 18368   0.432E-04 0.155E-04
CGA:   6    -0.383855913120E+03   -0.12927E-04   -0.13867E-04 18368   0.261E-04-0.143E-04
CGA:   7    -0.383855912738E+03    0.38257E-06   -0.90494E-05 18368   0.608E-04-0.326E-04
   6 F= -.38385591E+03 E0= -.38385591E+03  d E =-.242779E-02  mag=     0.0000
       N       E                     dE             d eps       ncg     rms          ort
SDA:   1    -0.383742308250E+03    0.11360E+00    0.00000E+00 18368   0.284E+00 0.000E+00
CGA:   2    -0.383828308222E+03   -0.86000E-01   -0.85993E-01 18368   0.123E+00 0.183E-03
CGA:   3    -0.383852541914E+03   -0.24234E-01   -0.24201E-01 18368   0.194E-01-0.754E-03
CGA:   4    -0.383856297356E+03   -0.37554E-02   -0.37591E-02 18368   0.505E-02 0.868E-04
CGA:   5    -0.383857185983E+03   -0.88863E-03   -0.89362E-03 18368   0.115E-02 0.827E-04
CGA:   6    -0.383857417390E+03   -0.23141E-03   -0.23191E-03 18368   0.285E-03 0.147E-04
CGA:   7    -0.383857494023E+03   -0.76633E-04   -0.77007E-04 18368   0.850E-04-0.105E-04
CGA:   8    -0.383857518919E+03   -0.24895E-04   -0.27219E-04 18368   0.494E-04-0.234E-04
CGA:   9    -0.383857529671E+03   -0.10752E-04   -0.12337E-04 18368   0.243E-04-0.148E-04
CGA:  10    -0.383857534034E+03   -0.43628E-05   -0.43539E-05 18368   0.767E-05 0.675E-06
   7 F= -.38385753E+03 E0= -.38385753E+03  d E =-.162130E-02  mag=     0.0000
       N       E                     dE             d eps       ncg     rms          ort
SDA:   1    -0.383857523795E+03    0.58764E-05    0.00000E+00 18368   0.386E-04 0.000E+00
CGA:   2    -0.383857530386E+03   -0.65916E-05   -0.69229E-05 18368   0.148E-04 0.549E-05
CGA:   3    -0.383857535398E+03   -0.50117E-05   -0.52878E-05 18368   0.711E-05-0.368E-05
CGA:   4    -0.383857536172E+03   -0.77398E-06   -0.68897E-06 18368   0.158E-05-0.758E-06
CGA:   5    -0.383857536325E+03   -0.15348E-06   -0.19202E-06 18368   0.586E-06 0.389E-06
CGA:   6    -0.383857536406E+03   -0.80556E-07   -0.97277E-07 18368   0.232E-06 0.172E-06
   8 F= -.38385754E+03 E0= -.38385754E+03  d E =-.162367E-02  mag=    -0.0000
       N       E                     dE             d eps       ncg     rms          ort
SDA:   1    -0.383857526565E+03    0.97604E-05    0.00000E+00 18368   0.236E-04 0.000E+00
CGA:   2    -0.383857532118E+03   -0.55531E-05   -0.50608E-05 18368   0.134E-04-0.250E-05
CGA:   3    -0.383857535061E+03   -0.29433E-05   -0.28449E-05 18368   0.585E-05-0.602E-06
CGA:   4    -0.383857535472E+03   -0.41065E-06   -0.62873E-06 18368   0.520E-06 0.778E-06
CGA:   5    -0.383857535452E+03    0.20191E-07   -0.52220E-07 18368   0.168E-06 0.249E-06
CGA:   6    -0.383857535449E+03    0.31141E-08   -0.24004E-07 18368   0.651E-07 0.101E-06
   9 F= -.38385754E+03 E0= -.38385754E+03  d E =-.162271E-02  mag=     0.0000
       N       E                     dE             d eps       ncg     rms          ort
SDA:   1    -0.383846103493E+03    0.11432E-01    0.00000E+00 18368   0.311E-01 0.000E+00
CGA:   2    -0.383854263615E+03   -0.81601E-02   -0.81753E-02 18368   0.151E-01 0.179E-03
CGA:   3    -0.383857289604E+03   -0.30260E-02   -0.29333E-02 18368   0.360E-02-0.609E-03
CGA:   4    -0.383857858164E+03   -0.56856E-03   -0.54525E-03 18368   0.808E-03-0.128E-03
CGA:   5    -0.383857987174E+03   -0.12901E-03   -0.13314E-03 18368   0.162E-03 0.260E-04
CGA:   6    -0.383858009229E+03   -0.22055E-04   -0.27907E-04 18368   0.352E-04 0.378E-04
CGA:   7    -0.383858012588E+03   -0.33591E-05   -0.62972E-05 18368   0.118E-04 0.174E-04
  10 F= -.38385801E+03 E0= -.38385801E+03  d E =-.477139E-03  mag=     0.0000
       N       E                     dE             d eps       ncg     rms          ort
SDA:   1    -0.383848369235E+03    0.96400E-02    0.00000E+00 18368   0.253E-01 0.000E+00
CGA:   2    -0.383855073510E+03   -0.67043E-02   -0.67096E-02 18368   0.122E-01 0.169E-03
CGA:   3    -0.383857554147E+03   -0.24806E-02   -0.24155E-02 18368   0.295E-02-0.661E-03
CGA:   4    -0.383858014107E+03   -0.45996E-03   -0.44339E-03 18368   0.679E-03-0.125E-03
CGA:   5    -0.383858118410E+03   -0.10430E-03   -0.10785E-03 18368   0.133E-03 0.300E-04
CGA:   6    -0.383858135483E+03   -0.17073E-04   -0.21726E-04 18368   0.309E-04 0.382E-04
CGA:   7    -0.383858137885E+03   -0.24029E-05   -0.50329E-05 18368   0.115E-04 0.180E-04
  11 F= -.38385814E+03 E0= -.38385814E+03  d E =-.602437E-03  mag=     0.0000
       N       E                     dE             d eps       ncg     rms          ort
SDA:   1    -0.383854586916E+03    0.35486E-02    0.00000E+00 18368   0.933E-02 0.000E+00
CGA:   2    -0.383857536820E+03   -0.29499E-02   -0.29561E-02 18368   0.364E-02-0.110E-03
CGA:   3    -0.383858212112E+03   -0.67529E-03   -0.67270E-03 18368   0.716E-03-0.334E-04
CGA:   4    -0.383858334142E+03   -0.12203E-03   -0.12201E-03 18368   0.168E-03-0.194E-06
CGA:   5    -0.383858358261E+03   -0.24119E-04   -0.25917E-04 18368   0.289E-04 0.178E-04
CGA:   6    -0.383858362267E+03   -0.40059E-05   -0.49911E-05 18368   0.795E-05 0.105E-04
  12 F= -.38385836E+03 E0= -.38385836E+03  d E =-.224382E-03  mag=     0.0000
       N       E                     dE             d eps       ncg     rms          ort
SDA:   1    -0.383831630124E+03    0.26728E-01    0.00000E+00 18368   0.673E-01 0.000E+00
CGA:   2    -0.383852881082E+03   -0.21251E-01   -0.21272E-01 18368   0.256E-01-0.278E-03
CGA:   3    -0.383857663416E+03   -0.47823E-02   -0.47746E-02 18368   0.500E-02-0.128E-03
CGA:   4    -0.383858521854E+03   -0.85844E-03   -0.85893E-03 18368   0.119E-02 0.693E-05
CGA:   5    -0.383858712685E+03   -0.19083E-03   -0.19509E-03 18368   0.216E-03 0.574E-04
CGA:   6    -0.383858755729E+03   -0.43043E-04   -0.44338E-04 18368   0.511E-04 0.334E-04
CGA:   7    -0.383858768695E+03   -0.12966E-04   -0.13012E-04 18368   0.149E-04 0.369E-05
CGA:   8    -0.383858773923E+03   -0.52279E-05   -0.63490E-05 18368   0.130E-04-0.679E-05
  13 F= -.38385877E+03 E0= -.38385877E+03  d E =-.636037E-03  mag=     0.0000
       N       E                     dE             d eps       ncg     rms          ort
SDA:   1    -0.383750279567E+03    0.10849E+00    0.00000E+00 18368   0.269E+00 0.000E+00
CGA:   2    -0.383835154576E+03   -0.84875E-01   -0.84919E-01 18368   0.102E+00-0.559E-03
CGA:   3    -0.383854221326E+03   -0.19067E-01   -0.19049E-01 18368   0.202E-01-0.293E-03
CGA:   4    -0.383857630083E+03   -0.34088E-02   -0.34102E-02 18368   0.483E-02 0.202E-04
CGA:   5    -0.383858442381E+03   -0.81230E-03   -0.82032E-03 18368   0.897E-03 0.121E-03
CGA:   6    -0.383858634347E+03   -0.19197E-03   -0.19347E-03 18368   0.220E-03 0.676E-04
CGA:   7    -0.383858686817E+03   -0.52471E-04   -0.52496E-04 18368   0.611E-04 0.278E-05
CGA:   8    -0.383858706606E+03   -0.19789E-04   -0.21859E-04 18368   0.370E-04-0.170E-04
CGA:   9    -0.383858713496E+03   -0.68895E-05   -0.69149E-05 18368   0.133E-04-0.118E-05
  14 F= -.38385871E+03 E0= -.38385871E+03  d E =-.575611E-03  mag=     0.0000
       N       E                     dE             d eps       ncg     rms          ort
SDA:   1    -0.383827749682E+03    0.30957E-01    0.00000E+00 18368   0.776E-01 0.000E+00
CGA:   2    -0.383852061837E+03   -0.24312E-01   -0.24286E-01 18368   0.293E-01 0.325E-03
CGA:   3    -0.383857523697E+03   -0.54619E-02   -0.54678E-02 18368   0.584E-02 0.116E-03
CGA:   4    -0.383858525312E+03   -0.10016E-02   -0.10013E-02 18368   0.143E-02-0.521E-05
CGA:   5    -0.383858788329E+03   -0.26302E-03   -0.25954E-03 18368   0.291E-03-0.690E-04
CGA:   6    -0.383858857273E+03   -0.68945E-04   -0.69927E-04 18368   0.965E-04-0.439E-04
CGA:   7    -0.383858872264E+03   -0.14990E-04   -0.15118E-04 18368   0.200E-04 0.275E-05
CGA:   8    -0.383858875087E+03   -0.28234E-05   -0.33453E-05 18368   0.657E-05 0.785E-05
  15 F= -.38385888E+03 E0= -.38385888E+03  d E =-.737202E-03  mag=    -0.0000
       N       E                     dE             d eps       ncg     rms          ort
SDA:   1    -0.383855241685E+03    0.36306E-02    0.00000E+00 18368   0.105E-01 0.000E+00
CGA:   2    -0.383858110890E+03   -0.28692E-02   -0.28768E-02 18368   0.506E-02-0.144E-03
CGA:   3    -0.383858952731E+03   -0.84184E-03   -0.85999E-03 18368   0.986E-03 0.350E-03
CGA:   4    -0.383859113952E+03   -0.16122E-03   -0.16608E-03 18368   0.220E-03 0.759E-04
CGA:   5    -0.383859156947E+03   -0.42995E-04   -0.43344E-04 18368   0.487E-04 0.985E-05
CGA:   6    -0.383859170596E+03   -0.13649E-04   -0.14551E-04 18368   0.222E-04-0.130E-04
CGA:   7    -0.383859177909E+03   -0.73131E-05    0.81507E-04 18368   0.599E-05-0.209E-05
CGA:   8    -0.383859180328E+03   -0.24194E-05    0.49117E-04 18368   0.187E-05 0.263E-06
  16 F= -.38385918E+03 E0= -.38385918E+03  d E =-.305241E-03  mag=     0.0000
       N       E                     dE             d eps       ncg     rms          ort
SDA:   1    -0.383823915297E+03    0.35263E-01    0.00000E+00 18368   0.946E-01 0.000E+00
CGA:   2    -0.383849473789E+03   -0.25558E-01   -0.25582E-01 18368   0.445E-01-0.456E-03
CGA:   3    -0.383857541674E+03   -0.80679E-02   -0.81105E-02 18368   0.937E-02 0.107E-02
CGA:   4    -0.383859070436E+03   -0.15288E-02   -0.15401E-02 18368   0.213E-02 0.188E-03
CGA:   5    -0.383859458660E+03   -0.38822E-03   -0.38936E-03 18368   0.449E-03 0.296E-04
CGA:   6    -0.383859564653E+03   -0.10599E-03   -0.10658E-03 18368   0.127E-03-0.314E-04
CGA:   7    -0.383859590662E+03   -0.26009E-04   -0.52736E-04 18368   0.206E-03-0.117E-03
CGA:   8    -0.383859616542E+03   -0.25880E-04   -0.27747E-04 18368   0.187E-04 0.201E-04
CGA:   9    -0.383859622453E+03   -0.59111E-05   -0.60627E-05 18368   0.670E-05-0.209E-05
  17 F= -.38385962E+03 E0= -.38385962E+03  d E =-.747366E-03  mag=     0.0000
       N       E                     dE             d eps       ncg     rms          ort
SDA:   1    -0.383856043970E+03    0.35726E-02    0.00000E+00 18368   0.101E-01 0.000E+00
CGA:   2    -0.383858813028E+03   -0.27691E-02   -0.27740E-02 18368   0.488E-02-0.997E-04
CGA:   3    -0.383859635484E+03   -0.82246E-03   -0.84094E-03 18368   0.834E-03 0.332E-03
CGA:   4    -0.383859782987E+03   -0.14750E-03   -0.15043E-03 18368   0.197E-03 0.506E-04
CGA:   5    -0.383859820814E+03   -0.37827E-04   -0.38005E-04 18368   0.465E-04 0.431E-05
CGA:   6    -0.383859833570E+03   -0.12756E-04   -0.13780E-04 18368   0.235E-04-0.150E-04
CGA:   7    -0.383859841117E+03   -0.75466E-05    0.33171E-04 18368   0.685E-05-0.358E-05
CGA:   8    -0.383859811249E+03    0.29868E-04   -0.16087E-04 18368   0.181E-03-0.309E-04
CGA:   9    -0.383859845641E+03   -0.34392E-04   -0.33950E-04 18368   0.204E-04-0.196E-05
CGA:  10    -0.383859850945E+03   -0.53044E-05   -0.47710E-05 18368   0.406E-05-0.327E-05
  18 F= -.38385985E+03 E0= -.38385985E+03  d E =-.228492E-03  mag=     0.0000
       N       E                     dE             d eps       ncg     rms          ort
SDA:   1    -0.383825561065E+03    0.34285E-01    0.00000E+00 18368   0.903E-01 0.000E+00
CGA:   2    -0.383850328323E+03   -0.24767E-01   -0.24744E-01 18368   0.436E-01-0.186E-03
CGA:   3    -0.383858244465E+03   -0.79161E-02   -0.80363E-02 18368   0.796E-02 0.633E-03
CGA:   4    -0.383859606468E+03   -0.13620E-02   -0.13743E-02 18368   0.190E-02 0.635E-04
CGA:   5    -0.383859943684E+03   -0.33722E-03   -0.33940E-03 18368   0.410E-03 0.126E-04
CGA:   6    -0.383860039555E+03   -0.95871E-04   -0.93417E-04 18368   0.112E-03-0.209E-04
CGA:   7    -0.383860076524E+03   -0.36969E-04   -0.38657E-04 18368   0.987E-04-0.657E-04
CGA:   8    -0.383860087500E+03   -0.10977E-04   -0.13317E-04 18368   0.105E-04 0.114E-04
CGA:   9    -0.383860092008E+03   -0.45077E-05   -0.53113E-05 18368   0.113E-04-0.659E-05
CGA:  10    -0.383859926005E+03    0.16600E-03   -0.90252E-04 18368   0.104E-02-0.105E-03
CGA:  11    -0.383860095893E+03   -0.16989E-03   -0.18739E-03 18368   0.502E-04 0.405E-04
CGA:  12    -0.383860106486E+03   -0.10593E-04   -0.11179E-04 18368   0.333E-05 0.156E-05
CGA:  13    -0.383860106439E+03    0.47105E-07   -0.52089E-06 18368   0.688E-06 0.135E-05
  19 F= -.38386011E+03 E0= -.38386011E+03  d E =-.483986E-03  mag=    -0.0000
       N       E                     dE             d eps       ncg     rms          ort
SDA:   1    -0.383859490221E+03    0.61627E-03    0.00000E+00 18368   0.155E-02 0.000E+00
CGA:   2    -0.383859899464E+03   -0.40924E-03   -0.41343E-03 18368   0.731E-03 0.162E-04
CGA:   3    -0.383860075097E+03   -0.17563E-03   -0.15448E-03 18368   0.175E-03-0.693E-04
CGA:   4    -0.383860100257E+03   -0.25160E-04   -0.24653E-04 18368   0.358E-04-0.146E-05
CGA:   5    -0.383860105949E+03   -0.56920E-05   -0.60400E-05 18368   0.791E-05 0.112E-05
CGA:   6    -0.383860107125E+03   -0.11760E-05   -0.14904E-05 18368   0.183E-05 0.111E-05
  20 F= -.38386011E+03 E0= -.38386011E+03  d E =-.484672E-03  mag=     0.0000
       N       E                     dE             d eps       ncg     rms          ort
SDA:   1    -0.383856700534E+03    0.34054E-02    0.00000E+00 18368   0.939E-02 0.000E+00
CGA:   2    -0.383859267667E+03   -0.25671E-02   -0.25649E-02 18368   0.448E-02-0.118E-04
CGA:   3    -0.383860048417E+03   -0.78075E-03   -0.81647E-03 18368   0.821E-03 0.146E-03
CGA:   4    -0.383860191510E+03   -0.14309E-03   -0.14420E-03 18368   0.201E-03 0.460E-05
CGA:   5    -0.383860229013E+03   -0.37502E-04   -0.36221E-04 18368   0.463E-04-0.579E-05
CGA:   6    -0.383860240501E+03   -0.11488E-04   -0.10631E-04 18368   0.135E-04-0.558E-05
CGA:   7    -0.383860245064E+03   -0.45631E-05   -0.49168E-05 18368   0.195E-04-0.116E-04
  21 F= -.38386025E+03 E0= -.38386025E+03  d E =-.137939E-03  mag=     0.0000
