       N       E                     dE             d eps       ncg     rms          rms(c)
DAV:   1     0.646874927991E+03    0.64687E+03   -0.29538E+04 92991   0.170E+03
DAV:   2    -0.220218566167E+02   -0.66890E+03   -0.63900E+03106326   0.511E+02
DAV:   3    -0.814569596502E+02   -0.59435E+02   -0.58737E+02103281   0.166E+02
DAV:   4    -0.826832726509E+02   -0.12263E+01   -0.12212E+01111216   0.247E+01
DAV:   5    -0.827186972266E+02   -0.35425E-01   -0.35417E-01122196   0.393E+00    0.199E+01
DAV:   6    -0.664354867062E+02    0.16283E+02   -0.27247E+01116985   0.423E+01    0.159E+01
DAV:   7    -0.669632424591E+02   -0.52776E+00   -0.37603E+00115521   0.127E+01    0.106E+01
DAV:   8    -0.671246115962E+02   -0.16137E+00   -0.50751E-01103836   0.674E+00    0.591E+00
DAV:   9    -0.671337477744E+02   -0.91362E-02   -0.16811E-01119925   0.339E+00    0.325E+00
DAV:  10    -0.671409281164E+02   -0.71803E-02   -0.27050E-02110169   0.129E+00    0.168E+00
DAV:  11    -0.671474999076E+02   -0.65718E-02   -0.43933E-03114654   0.534E-01    0.103E+00
DAV:  12    -0.671427030091E+02    0.47969E-02   -0.42303E-03128232   0.497E-01    0.292E-01
DAV:  13    -0.671455669652E+02   -0.28640E-02   -0.23257E-04113970   0.133E-01    0.156E-01
DAV:  14    -0.671461593754E+02   -0.59241E-03   -0.56009E-05109854   0.502E-02    0.758E-02
DAV:  15    -0.671463343275E+02   -0.17495E-03   -0.18205E-05 70416   0.318E-02    0.194E-02
DAV:  16    -0.671465640350E+02   -0.22971E-03   -0.38945E-06 52131   0.179E-02    0.122E-02
DAV:  17    -0.671465152375E+02    0.48797E-04   -0.11188E-06 48666   0.926E-03    0.719E-03
DAV:  18    -0.671465467180E+02   -0.31481E-04   -0.86004E-07 47982   0.673E-03    0.266E-03
DAV:  19    -0.671465475573E+02   -0.83929E-06   -0.26058E-07 47592   0.393E-03
   1 F= -.67146548E+02 E0= -.67146548E+02  d E =-.671465E+02  mag=    -0.0000
       N       E                     dE             d eps       ncg     rms          rms(c)
DAV:   1    -0.673272458722E+02   -0.18070E+00   -0.67228E+00 97764   0.223E+01    0.372E+00
DAV:   2    -0.671869312886E+02    0.14031E+00   -0.47919E-01 97800   0.534E+00    0.225E+00
DAV:   3    -0.671606118283E+02    0.26319E-01   -0.89962E-02113298   0.211E+00    0.110E+00
DAV:   4    -0.671585934578E+02    0.20184E-02   -0.30550E-03109233   0.411E-01    0.587E-01
DAV:   5    -0.671589153531E+02   -0.32190E-03   -0.82575E-04113925   0.219E-01    0.462E-01
DAV:   6    -0.671568922232E+02    0.20231E-02   -0.45414E-04116937   0.179E-01    0.241E-01
DAV:   7    -0.671573566336E+02   -0.46441E-03   -0.22665E-04106932   0.142E-01    0.515E-02
DAV:   8    -0.671573650615E+02   -0.84280E-05   -0.19531E-05 75699   0.372E-02
   2 F= -.67157365E+02 E0= -.67157365E+02  d E =-.108175E-01  mag=    -0.0000
       N       E                     dE             d eps       ncg     rms          rms(c)
DAV:   1    -0.671577487542E+02   -0.39212E-03   -0.13881E-02 97710   0.102E+00    0.170E-01
DAV:   2    -0.671566822719E+02    0.10665E-02   -0.98120E-04 97890   0.243E-01    0.104E-01
DAV:   3    -0.671573141373E+02   -0.63187E-03   -0.17687E-04111690   0.944E-02    0.504E-02
DAV:   4    -0.671573483007E+02   -0.34163E-04   -0.50933E-06 55110   0.184E-02    0.274E-02
DAV:   5    -0.671573210650E+02    0.27236E-04   -0.19922E-06 48726   0.113E-02    0.215E-02
DAV:   6    -0.671574072441E+02   -0.86179E-04   -0.12430E-06 47490   0.105E-02    0.112E-02
DAV:   7    -0.671573979811E+02    0.92629E-05   -0.59713E-07 46926   0.768E-03
   3 F= -.67157398E+02 E0= -.67157398E+02  d E =-.108504E-01  mag=     0.0000
       N       E                     dE             d eps       ncg     rms          rms(c)
DAV:   1    -0.671643048687E+02   -0.68976E-02   -0.94590E-01 92928   0.712E+00    0.116E+00
DAV:   2    -0.671611844813E+02    0.31204E-02   -0.24851E-02110844   0.128E+00    0.772E-01
DAV:   3    -0.671617351760E+02   -0.55069E-03   -0.22872E-03119982   0.387E-01    0.343E-01
DAV:   4    -0.671611001757E+02    0.63500E-03   -0.66728E-04140850   0.160E-01    0.257E-01
DAV:   5    -0.671612228859E+02   -0.12271E-03   -0.10180E-04111474   0.836E-02    0.258E-01
DAV:   6    -0.671609390621E+02    0.28382E-03   -0.12848E-04118674   0.114E-01    0.550E-02
DAV:   7    -0.671608508893E+02    0.88173E-04   -0.24888E-05 84720   0.412E-02    0.223E-02
DAV:   8    -0.671607555303E+02    0.95359E-04   -0.36989E-06 48168   0.163E-02    0.137E-02
DAV:   9    -0.671607502398E+02    0.52905E-05   -0.91511E-07 47208   0.763E-03
   4 F= -.67160750E+02 E0= -.67160750E+02  d E =-.335226E-02  mag=     0.0000
       N       E                     dE             d eps       ncg     rms          rms(c)
DAV:   1    -0.671953055511E+02   -0.34550E-01   -0.84855E+00 92928   0.213E+01    0.373E+00
DAV:   2    -0.671738347116E+02    0.21471E-01   -0.22500E-01102168   0.390E+00    0.252E+00
DAV:   3    -0.671700730225E+02    0.37617E-02   -0.20653E-02119484   0.108E+00    0.129E+00
DAV:   4    -0.671669998552E+02    0.30732E-02   -0.43673E-03135066   0.419E-01    0.808E-01
DAV:   5    -0.671673223457E+02   -0.32249E-03   -0.10077E-03112938   0.238E-01    0.862E-01
DAV:   6    -0.671667352896E+02    0.58706E-03   -0.11516E-03116904   0.289E-01    0.252E-01
DAV:   7    -0.671660216045E+02    0.71369E-03   -0.24791E-04125589   0.117E-01    0.854E-02
DAV:   8    -0.671659933103E+02    0.28294E-04   -0.20038E-05 87768   0.438E-02    0.589E-02
DAV:   9    -0.671658891461E+02    0.10416E-03   -0.89711E-06 71706   0.236E-02    0.222E-02
DAV:  10    -0.671658918811E+02   -0.27349E-05   -0.25977E-06 63504   0.133E-02
   5 F= -.67165892E+02 E0= -.67165892E+02  d E =-.849390E-02  mag=    -0.0000
       N       E                     dE             d eps       ncg     rms          rms(c)
DAV:   1    -0.671761070474E+02   -0.10218E-01   -0.63554E-01 92928   0.601E+00    0.127E+00
DAV:   2    -0.671704580551E+02    0.56490E-02   -0.11583E-02121554   0.108E+00    0.839E-01
DAV:   3    -0.671693230841E+02    0.11350E-02   -0.31295E-03118878   0.458E-01    0.412E-01
DAV:   4    -0.671686820987E+02    0.64099E-03   -0.11006E-03137658   0.188E-01    0.291E-01
DAV:   5    -0.671690478717E+02   -0.36577E-03   -0.24780E-04124896   0.131E-01    0.324E-01
DAV:   6    -0.671689500624E+02    0.97809E-04   -0.20204E-04128778   0.142E-01    0.474E-02
DAV:   7    -0.671688120118E+02    0.13805E-03   -0.28317E-05 90360   0.433E-02    0.176E-02
DAV:   8    -0.671687933446E+02    0.18667E-04   -0.21733E-06 48120   0.113E-02    0.112E-02
DAV:   9    -0.671688037019E+02   -0.10357E-04   -0.10790E-06 46908   0.886E-03    0.375E-03
DAV:  10    -0.671687976143E+02    0.60877E-05   -0.43029E-07 46800   0.471E-03
   6 F= -.67168798E+02 E0= -.67168798E+02  d E =-.290573E-02  mag=    -0.0000
       N       E                     dE             d eps       ncg     rms          rms(c)
DAV:   1    -0.672074038256E+02   -0.38600E-01   -0.28683E+00 92928   0.128E+01    0.276E+00
DAV:   2    -0.671800976041E+02    0.27306E-01   -0.50764E-02118644   0.228E+00    0.184E+00
DAV:   3    -0.671732512493E+02    0.68464E-02   -0.14408E-02129690   0.923E-01    0.987E-01
DAV:   4    -0.671719847570E+02    0.12665E-02   -0.40101E-03139260   0.378E-01    0.640E-01
DAV:   5    -0.671725901935E+02   -0.60544E-03   -0.10466E-03126720   0.246E-01    0.725E-01
DAV:   6    -0.671722351714E+02    0.35502E-03   -0.82208E-04124626   0.273E-01    0.153E-01
DAV:   7    -0.671720958417E+02    0.13933E-03   -0.17395E-04119736   0.919E-02    0.626E-02
DAV:   8    -0.671720128252E+02    0.83017E-04   -0.10034E-05 75504   0.266E-02    0.291E-02
DAV:   9    -0.671720440030E+02   -0.31178E-04   -0.46932E-06 48318   0.191E-02    0.107E-02
DAV:  10    -0.671720444196E+02   -0.41665E-06   -0.21101E-06 47664   0.998E-03
   7 F= -.67172044E+02 E0= -.67172044E+02  d E =-.615254E-02  mag=    -0.0000
       N       E                     dE             d eps       ncg     rms          rms(c)
DAV:   1    -0.671746100525E+02   -0.25660E-02   -0.18517E-01 92928   0.325E+00    0.665E-01
DAV:   2    -0.671726983697E+02    0.19117E-02   -0.33223E-03118494   0.571E-01    0.438E-01
DAV:   3    -0.671713897396E+02    0.13086E-02   -0.96786E-04130416   0.271E-01    0.209E-01
DAV:   4    -0.671717126431E+02   -0.32290E-03   -0.36396E-04129822   0.112E-01    0.160E-01
DAV:   5    -0.671715367549E+02    0.17589E-03   -0.68278E-05122574   0.711E-02    0.163E-01
DAV:   6    -0.671715542908E+02   -0.17536E-04   -0.56708E-05101886   0.803E-02    0.344E-02
DAV:   7    -0.671716722199E+02   -0.11793E-03   -0.11412E-05 71112   0.316E-02    0.118E-02
DAV:   8    -0.671716731702E+02   -0.95030E-06   -0.18351E-06 47016   0.115E-02
   8 F= -.67171673E+02 E0= -.67171673E+02  d E =-.578129E-02  mag=    -0.0000
       N       E                     dE             d eps       ncg     rms          rms(c)
DAV:   1    -0.671717546010E+02   -0.82381E-04   -0.67173E-03 92928   0.619E-01    0.129E-01
DAV:   2    -0.671717493776E+02    0.52234E-05   -0.12100E-04117948   0.109E-01    0.851E-02
DAV:   3    -0.671718275022E+02   -0.78125E-04   -0.33301E-05 93690   0.496E-02    0.399E-02
DAV:   4    -0.671717623353E+02    0.65167E-04   -0.13682E-05 64572   0.230E-02    0.297E-02
DAV:   5    -0.671717958601E+02   -0.33525E-04   -0.33736E-06 46842   0.162E-02    0.310E-02
DAV:   6    -0.671718058524E+02   -0.99923E-05   -0.22834E-06 53316   0.162E-02
   9 F= -.67171806E+02 E0= -.67171806E+02  d E =-.591397E-02  mag=    -0.0000
       N       E                     dE             d eps       ncg     rms          rms(c)
DAV:   1    -0.671785970463E+02   -0.68012E-02   -0.20400E-01 98316   0.416E+00    0.724E-01
DAV:   2    -0.671756964756E+02    0.29006E-02   -0.19631E-02 98928   0.112E+00    0.406E-01
DAV:   3    -0.671721546544E+02    0.35418E-02   -0.35039E-03115080   0.422E-01    0.181E-01
DAV:   4    -0.671719032441E+02    0.25141E-03   -0.17239E-04130077   0.905E-02    0.108E-01
DAV:   5    -0.671722368904E+02   -0.33365E-03   -0.57478E-05120246   0.547E-02    0.730E-02
DAV:   6    -0.671719351369E+02    0.30175E-03   -0.18033E-05 83166   0.346E-02    0.483E-02
DAV:   7    -0.671720531056E+02   -0.11797E-03   -0.58295E-06 71400   0.239E-02    0.118E-02
DAV:   8    -0.671721426395E+02   -0.89534E-04   -0.23145E-06 47340   0.120E-02    0.447E-03
DAV:   9    -0.671721282649E+02    0.14375E-04   -0.42267E-07 46932   0.573E-03    0.257E-03
DAV:  10    -0.671721228495E+02    0.54155E-05   -0.12818E-07 46728   0.285E-03
  10 F= -.67172123E+02 E0= -.67172123E+02  d E =-.316997E-03  mag=    -0.0000
