       N       E                     dE             d eps       ncg     rms          rms(c)
DAV:   1     0.619229589008E+04    0.61923E+04   -0.23715E+05 73312   0.163E+03
DAV:   2     0.365193417106E+03   -0.58271E+04   -0.54859E+04 73868   0.492E+02
DAV:   3    -0.672348311561E+03   -0.10375E+04   -0.10096E+04 76240   0.212E+02
DAV:   4    -0.720991068221E+03   -0.48643E+02   -0.48236E+02 88000   0.525E+01
DAV:   5    -0.722489635984E+03   -0.14986E+01   -0.14926E+01 91016   0.103E+01    0.104E+02
DAV:   6    -0.375046009872E+03    0.34744E+03   -0.40509E+02 92148   0.833E+01    0.278E+01
DAV:   7    -0.406100225369E+03   -0.31054E+02   -0.10197E+02 85832   0.224E+01    0.218E+01
DAV:   8    -0.408466339459E+03   -0.23661E+01   -0.10632E+01 87744   0.119E+01    0.173E+01
DAV:   9    -0.425350839913E+03   -0.16885E+02   -0.44624E+00 80768   0.521E+00    0.874E+00
DAV:  10    -0.449158865302E+03   -0.23808E+02   -0.10911E+01 84092   0.712E+00    0.654E+00
DAV:  11    -0.462941669575E+03   -0.13783E+02   -0.68010E+00 84420   0.520E+00    0.594E+00
DAV:  12    -0.476152656792E+03   -0.13211E+02   -0.13646E+01 76824   0.562E+00    0.348E+00
DAV:  13    -0.480237488138E+03   -0.40848E+01   -0.61568E+00 76028   0.374E+00    0.149E+00
DAV:  14    -0.480605815786E+03   -0.36833E+00   -0.43363E-01 81168   0.148E+00    0.132E+00
DAV:  15    -0.480624461901E+03   -0.18646E-01   -0.30284E-02 77336   0.530E-01    0.723E-01
DAV:  16    -0.480635280527E+03   -0.10819E-01   -0.74922E-03 76840   0.240E-01    0.414E-01
DAV:  17    -0.480637397572E+03   -0.21170E-02   -0.19106E-03 78052   0.122E-01    0.171E-01
DAV:  18    -0.480638053307E+03   -0.65573E-03   -0.10041E-03 76540   0.717E-02    0.437E-02
DAV:  19    -0.480638086608E+03   -0.33301E-04   -0.91241E-05 71796   0.285E-02    0.302E-02
DAV:  20    -0.480638091391E+03   -0.47835E-05   -0.25906E-05 50860   0.206E-02
   1 F= -.48063809E+03 E0= -.48063809E+03  d E =-.480638E+03  mag=     0.0014
