       N       E                     dE             d eps       ncg     rms          rms(c)
DAV:   1     0.762551592018E+03    0.76255E+03   -0.32332E+04106672   0.160E+03
DAV:   2     0.271991054843E+01   -0.75983E+03   -0.69874E+03119168   0.476E+02
DAV:   3    -0.897336007788E+02   -0.92454E+02   -0.89521E+02123536   0.173E+02
DAV:   4    -0.920742310904E+02   -0.23406E+01   -0.23305E+01123632   0.299E+01
DAV:   5    -0.921274180414E+02   -0.53187E-01   -0.53179E-01120968   0.473E+00    0.431E+00
DAV:   6    -0.734483801775E+02    0.18679E+02   -0.82119E+00121544   0.168E+01    0.326E+00
DAV:   7    -0.733521052528E+02    0.96275E-01   -0.31348E-01147408   0.419E+00    0.199E+00
DAV:   8    -0.733295567201E+02    0.22549E-01   -0.40444E-02113288   0.117E+00    0.135E+00
DAV:   9    -0.733245630673E+02    0.49937E-02   -0.41150E-03121656   0.381E-01    0.104E+00
DAV:  10    -0.733193782338E+02    0.51848E-02   -0.46482E-03119520   0.371E-01    0.770E-01
DAV:  11    -0.733144064368E+02    0.49718E-02   -0.15140E-02121224   0.682E-01    0.237E-01
DAV:  12    -0.733140831461E+02    0.32329E-03   -0.28430E-03124744   0.297E-01    0.190E-02
DAV:  13    -0.733141102123E+02   -0.27066E-04   -0.29308E-04114944   0.988E-02    0.636E-02
DAV:  14    -0.733142080543E+02   -0.97842E-04   -0.21773E-04121752   0.804E-02    0.126E-01
DAV:  15    -0.733142783325E+02   -0.70278E-04   -0.67482E-05 98816   0.436E-02    0.157E-01
DAV:  16    -0.733142560970E+02    0.22236E-04   -0.28333E-05 57016   0.245E-02    0.153E-01
DAV:  17    -0.733141198375E+02    0.13626E-03   -0.30904E-04119240   0.966E-02    0.803E-02
DAV:  18    -0.733140903282E+02    0.29509E-04   -0.14743E-04122528   0.671E-02    0.240E-02
DAV:  19    -0.733140910198E+02   -0.69157E-06   -0.91425E-06 58792   0.176E-02
   1 F= -.73314091E+02 E0= -.73314091E+02  d E =-.733141E+02  mag=     0.0000
