       N       E                     dE             d eps       ncg     rms          rms(c)
DAV:   1     0.699159728476E+03    0.69916E+03   -0.31278E+04100605   0.186E+03
DAV:   2    -0.405237925324E+01   -0.70321E+03   -0.65663E+03107637   0.547E+02
DAV:   3    -0.783843163472E+02   -0.74332E+02   -0.73493E+02110622   0.188E+02
DAV:   4    -0.799815190864E+02   -0.15972E+01   -0.15921E+01113811   0.296E+01
DAV:   5    -0.800085043904E+02   -0.26985E-01   -0.26981E-01107991   0.426E+00    0.195E+01
DAV:   6    -0.653900979205E+02    0.14618E+02   -0.18877E+01117633   0.393E+01    0.182E+01
DAV:   7    -0.660605477530E+02   -0.67045E+00   -0.39774E+00113394   0.134E+01    0.123E+01
DAV:   8    -0.660224447484E+02    0.38103E-01   -0.92720E-01116004   0.816E+00    0.630E+00
DAV:   9    -0.665372407316E+02   -0.51480E+00   -0.18637E-01114117   0.547E+00    0.129E+00
DAV:  10    -0.666253671075E+02   -0.88126E-01   -0.44009E-02105369   0.315E+00    0.300E-01
DAV:  11    -0.666249511159E+02    0.41599E-03   -0.14039E-02111726   0.724E-01    0.143E-01
DAV:  12    -0.666259527723E+02   -0.10017E-02   -0.79772E-04110304   0.269E-01    0.606E-02
DAV:  13    -0.666258057605E+02    0.14701E-03   -0.26622E-04112554   0.156E-01    0.305E-02
DAV:  14    -0.666259306496E+02   -0.12489E-03   -0.29464E-05 92874   0.563E-02    0.189E-02
DAV:  15    -0.666258730567E+02    0.57593E-04   -0.21445E-05 70590   0.316E-02    0.796E-03
DAV:  16    -0.666258549899E+02    0.18067E-04   -0.29577E-06 52548   0.158E-02    0.122E-03
DAV:  17    -0.666258520444E+02    0.29455E-05   -0.97386E-07 51960   0.762E-03
   1 F= -.66625852E+02 E0= -.66625852E+02  d E =-.666259E+02  mag=    -0.0000
