       N       E                     dE             d eps       ncg     rms          ort
DAV:   1     0.195875487255E+04    0.19588E+04   -0.11756E+05 19680   0.172E+03
DAV:   2    -0.687477720853E+02   -0.20275E+04   -0.18801E+04 19680   0.467E+02
DAV:   3    -0.248957598828E+03   -0.18021E+03   -0.17573E+03 19680   0.153E+02
DAV:   4    -0.252355019009E+03   -0.33974E+01   -0.32675E+01 19680   0.215E+01
DAV:   5    -0.252409619221E+03   -0.54600E-01   -0.54173E-01 19680   0.277E+00
SDA:   6    -0.192614662336E+03    0.59795E+02   -0.54173E-01 19680   0.130E+02 0.000E+00
CGA:   7    -0.194595146072E+03   -0.19805E+01   -0.19811E+01 19680   0.136E+01-0.364E-01
CGA:   8    -0.194865915358E+03   -0.27077E+00   -0.27080E+00 19680   0.336E+00-0.114E-01
CGA:   9    -0.194933052984E+03   -0.67138E-01   -0.67143E-01 19680   0.108E+00-0.135E-02
CGA:  10    -0.194951482399E+03   -0.18429E-01   -0.18461E-01 19680   0.345E-01 0.119E-02
CGA:  11    -0.194959640466E+03   -0.81581E-02   -0.81075E-02 19680   0.134E-01 0.141E-02
CGA:  12    -0.194963058853E+03   -0.34184E-02   -0.33728E-02 19680   0.601E-02 0.107E-02
CGA:  13    -0.194964835117E+03   -0.17763E-02   -0.17321E-02 19680   0.246E-02 0.670E-03
CGA:  14    -0.194965557110E+03   -0.72199E-03   -0.71575E-03 19680   0.833E-03 0.111E-03
CGA:  15    -0.194965771385E+03   -0.21427E-03   -0.21225E-03 19680   0.194E-03 0.559E-04
CGA:  16    -0.194965805663E+03   -0.34279E-04   -0.36670E-04 19680   0.517E-04 0.763E-04
CGA:  17    -0.194965809350E+03   -0.36867E-05   -0.78860E-05 19680   0.247E-04 0.430E-04
   1 F= -.19496581E+03 E0= -.19496581E+03  d E =-.194966E+03  mag=     4.0000
