       N       E                     dE             d eps       ncg     rms          rms(c)
DAV:   1     0.100008086981E+04    0.10001E+04   -0.41722E+04157652   0.224E+03
DAV:   2     0.313890393735E+02   -0.96869E+03   -0.93063E+03171364   0.644E+02
DAV:   3    -0.843762592003E+02   -0.11577E+03   -0.11272E+03163924   0.216E+02
DAV:   4    -0.880699832502E+02   -0.36937E+01   -0.36823E+01166784   0.404E+01
DAV:   5    -0.881306006142E+02   -0.60617E-01   -0.60600E-01178312   0.512E+00    0.376E+00
DAV:   6    -0.702410332419E+02    0.17890E+02   -0.66591E+00164376   0.161E+01    0.484E+00
DAV:   7    -0.701815040255E+02    0.59529E-01   -0.13788E-01163696   0.256E+00    0.187E+00
DAV:   8    -0.701568973607E+02    0.24607E-01   -0.35512E-02165644   0.124E+00    0.121E+00
DAV:   9    -0.701501532218E+02    0.67441E-02   -0.35748E-03163320   0.391E-01    0.103E+00
DAV:  10    -0.701443401375E+02    0.58131E-02   -0.35508E-03164140   0.448E-01    0.775E-01
DAV:  11    -0.701398546782E+02    0.44855E-02   -0.48483E-03164060   0.473E-01    0.524E-01
DAV:  12    -0.701382880817E+02    0.15666E-02   -0.13429E-03164492   0.233E-01    0.401E-01
DAV:  13    -0.701381963616E+02    0.91720E-04   -0.17557E-05 92180   0.340E-02    0.392E-01
DAV:  14    -0.701378337756E+02    0.36259E-03   -0.12916E-04164472   0.807E-02    0.341E-01
DAV:  15    -0.701369523776E+02    0.88140E-03   -0.18539E-03163872   0.302E-01    0.147E-01
DAV:  16    -0.701367874490E+02    0.16493E-03   -0.81072E-04164728   0.191E-01    0.391E-02
DAV:  17    -0.701368174897E+02   -0.30041E-04   -0.78054E-05150680   0.599E-02    0.105E-02
DAV:  18    -0.701368337549E+02   -0.16265E-04   -0.16664E-05 85868   0.332E-02    0.846E-03
DAV:  19    -0.701368388286E+02   -0.50736E-05   -0.48408E-06 81856   0.178E-02
   1 F= -.70136839E+02 E0= -.70136839E+02  d E =-.701368E+02  mag=    -0.0000
