       N       E                     dE             d eps       ncg     rms          rms(c)
DAV:   1     0.855127450534E+03    0.85513E+03   -0.31953E+04107016   0.160E+03
DAV:   2     0.168146708999E+01   -0.85345E+03   -0.80465E+03127000   0.496E+02
DAV:   3    -0.104742672275E+03   -0.10642E+03   -0.10514E+03116224   0.188E+02
DAV:   4    -0.107901347062E+03   -0.31587E+01   -0.30693E+01129984   0.370E+01
DAV:   5    -0.107985446607E+03   -0.84100E-01   -0.83762E-01121744   0.629E+00    0.332E+01
DAV:   6    -0.803092652000E+02    0.27676E+02   -0.34321E+01145504   0.646E+01    0.122E+01
DAV:   7    -0.818237767699E+02   -0.15145E+01   -0.72917E+00135968   0.174E+01    0.132E+01
DAV:   8    -0.815782488042E+02    0.24553E+00   -0.62061E-01139632   0.968E+00    0.804E+00
DAV:   9    -0.818275261295E+02   -0.24928E+00   -0.49373E-01145824   0.505E+00    0.495E+00
DAV:  10    -0.818101633662E+02    0.17363E-01   -0.10420E-01141984   0.288E+00    0.172E+00
DAV:  11    -0.818156403706E+02   -0.54770E-02   -0.23633E-02130320   0.117E+00    0.864E-01
DAV:  12    -0.818288362247E+02   -0.13196E-01   -0.94098E-03150736   0.676E-01    0.514E-01
DAV:  13    -0.818299490465E+02   -0.11128E-02   -0.40680E-03154544   0.325E-01    0.436E-01
DAV:  14    -0.818319484797E+02   -0.19994E-02   -0.81202E-03152696   0.413E-01    0.370E-01
DAV:  15    -0.818328648851E+02   -0.91641E-03   -0.28103E-02152800   0.915E-01    0.181E-01
DAV:  16    -0.818322370756E+02    0.62781E-03   -0.18560E-03155544   0.363E-01    0.126E-01
DAV:  17    -0.818327690773E+02   -0.53200E-03   -0.10155E-03133920   0.184E-01    0.876E-02
DAV:  18    -0.818328588621E+02   -0.89785E-04   -0.53281E-04155808   0.159E-01    0.439E-02
DAV:  19    -0.818328499498E+02    0.89123E-05   -0.67487E-04149640   0.125E-01    0.172E-02
DAV:  20    -0.818327896892E+02    0.60261E-04   -0.38310E-05 96632   0.364E-02    0.134E-02
DAV:  21    -0.818328348800E+02   -0.45191E-04   -0.74655E-06 55440   0.201E-02    0.919E-03
DAV:  22    -0.818328787974E+02   -0.43917E-04   -0.31159E-06 56408   0.116E-02    0.555E-03
DAV:  23    -0.818328779201E+02    0.87732E-06   -0.13621E-06 53520   0.798E-03
   1 F= -.81832878E+02 E0= -.81832878E+02  d E =-.818329E+02  mag=     0.0002
       N       E                     dE             d eps       ncg     rms          rms(c)
DAV:   1    -0.818332404469E+02   -0.36165E-03   -0.79914E-02106560   0.185E+00    0.176E-01
DAV:   2    -0.818330933104E+02    0.14714E-03   -0.26563E-03122048   0.372E-01    0.108E-01
DAV:   3    -0.818331251309E+02   -0.31821E-04   -0.19615E-04126000   0.117E-01    0.408E-02
DAV:   4    -0.818330546335E+02    0.70497E-04   -0.35101E-05 97576   0.462E-02    0.209E-02
DAV:   5    -0.818331310906E+02   -0.76457E-04   -0.23833E-05 57048   0.285E-02    0.162E-02
DAV:   6    -0.818331060063E+02    0.25084E-04   -0.74175E-06 54928   0.155E-02    0.154E-02
DAV:   7    -0.818331112325E+02   -0.52262E-05   -0.55384E-06 55592   0.137E-02
   2 F= -.81833111E+02 E0= -.81833111E+02  d E =-.233312E-03  mag=     0.0000
