       N       E                     dE             d eps       ncg     rms          rms(c)
DAV:   1     0.741818756873E+03    0.74182E+03   -0.33929E+04110925   0.229E+03
DAV:   2     0.121107293463E+02   -0.72971E+03   -0.69087E+03115353   0.640E+02
DAV:   3    -0.642987995885E+02   -0.76410E+02   -0.75097E+02130284   0.200E+02
DAV:   4    -0.660978245221E+02   -0.17990E+01   -0.17976E+01114444   0.329E+01
DAV:   5    -0.661315002555E+02   -0.33676E-01   -0.33675E-01140706   0.423E+00    0.386E+00
DAV:   6    -0.524723407967E+02    0.13659E+02   -0.66928E+00108882   0.182E+01    0.449E+00
DAV:   7    -0.523962364522E+02    0.76104E-01   -0.15635E-01122868   0.305E+00    0.182E+00
DAV:   8    -0.523726977944E+02    0.23539E-01   -0.27054E-02114273   0.117E+00    0.139E+00
DAV:   9    -0.523600047909E+02    0.12693E-01   -0.11808E-02120618   0.831E-01    0.932E-01
DAV:  10    -0.523549069365E+02    0.50979E-02   -0.43506E-03119223   0.516E-01    0.670E-01
DAV:  11    -0.523524894702E+02    0.24175E-02   -0.18208E-03118845   0.328E-01    0.498E-01
DAV:  12    -0.523507922832E+02    0.16972E-02   -0.19309E-03116730   0.335E-01    0.320E-01
DAV:  13    -0.523498174987E+02    0.97478E-03   -0.27647E-03115920   0.405E-01    0.108E-01
DAV:  14    -0.523497455156E+02    0.71983E-04   -0.40621E-04124344   0.155E-01    0.324E-02
DAV:  15    -0.523497590251E+02   -0.13510E-04   -0.51747E-05 99756   0.559E-02    0.569E-03
DAV:  16    -0.523497639966E+02   -0.49715E-05   -0.41810E-06 55764   0.182E-02
   1 F= -.52349764E+02 E0= -.52349764E+02  d E =-.523498E+02  mag=    -0.0000
