       N       E                     dE             d eps       ncg     rms          ort
DAV:   1     0.280225955627E+04    0.28023E+04   -0.10026E+05 19680   0.186E+03
DAV:   2     0.236814427945E+03   -0.25654E+04   -0.23957E+04 19680   0.542E+02
DAV:   3    -0.243757526299E+03   -0.48057E+03   -0.46241E+03 19680   0.242E+02
DAV:   4    -0.273264613899E+03   -0.29507E+02   -0.28524E+02 19680   0.637E+01
DAV:   5    -0.274180925373E+03   -0.91631E+00   -0.89819E+00 19680   0.114E+01
SDA:   6    -0.137667815667E+03    0.13651E+03   -0.89819E+00 19680   0.554E+03 0.000E+00
CGA:   7    -0.198280749923E+03   -0.60613E+02   -0.68469E+02 19680   0.379E+02-0.182E+02
CGA:   8    -0.205831986512E+03   -0.75512E+01   -0.75379E+01 19680   0.272E+02 0.543E+00
CGA:   9    -0.208706550275E+03   -0.28746E+01   -0.34061E+01 19680   0.259E+02-0.140E+01
CGA:  10    -0.210288137887E+03   -0.15816E+01   -0.21795E+01 19680   0.141E+02-0.144E+01
CGA:  11    -0.211235729493E+03   -0.94759E+00   -0.14022E+01 19680   0.414E+01 0.787E-01
CGA:  12    -0.212017794176E+03   -0.78206E+00   -0.77985E+00 19680   0.112E+01 0.285E+00
CGA:  13    -0.212238555107E+03   -0.22076E+00   -0.22058E+00 19680   0.277E+00 0.181E+00
CGA:  14    -0.212321300791E+03   -0.82746E-01   -0.82100E-01 19680   0.114E+00 0.627E-02
CGA:  15    -0.212357563090E+03   -0.36262E-01   -0.36121E-01 19680   0.503E-01 0.763E-03
CGA:  16    -0.212376561699E+03   -0.18999E-01   -0.19371E-01 19680   0.301E-01-0.201E-02
CGA:  17    -0.212387357993E+03   -0.10796E-01   -0.11042E-01 19680   0.145E-01-0.139E-02
CGA:  18    -0.212392100695E+03   -0.47427E-02   -0.47301E-02 19680   0.531E-02 0.103E-03
CGA:  19    -0.212394029771E+03   -0.19291E-02   -0.19258E-02 19680   0.257E-02 0.260E-04
CGA:  20    -0.212395304261E+03   -0.12745E-02   -0.14266E-02 19680   0.237E-02-0.456E-03
CGA:  21    -0.212396253067E+03   -0.94881E-03   -0.10195E-02 19680   0.190E-02-0.239E-03
CGA:  22    -0.212397119102E+03   -0.86603E-03   -0.88490E-03 19680   0.162E-02-0.615E-04
CGA:  23    -0.212398128537E+03   -0.10094E-02   -0.12735E-02 19680   0.302E-02-0.463E-03
CGA:  24    -0.212399484950E+03   -0.13564E-02   -0.22374E-02 19680   0.792E-02-0.105E-02
CGA:  25    -0.212401831931E+03   -0.23470E-02   -0.23442E-02 19680   0.873E-02 0.499E-03
CGA:  26    -0.212406116973E+03   -0.42850E-02   -0.40970E-02 19680   0.671E-02 0.184E-02
CGA:  27    -0.212409997470E+03   -0.38805E-02   -0.37256E-02 19680   0.488E-02 0.141E-02
CGA:  28    -0.212412488603E+03   -0.24911E-02   -0.24208E-02 19680   0.313E-02 0.106E-02
CGA:  29    -0.212414193670E+03   -0.17051E-02   -0.16572E-02 19680   0.216E-02 0.530E-03
CGA:  30    -0.212415451835E+03   -0.12582E-02   -0.12250E-02 19680   0.177E-02 0.233E-03
CGA:  31    -0.212416521946E+03   -0.10701E-02   -0.10652E-02 19680   0.176E-02 0.817E-05
CGA:  32    -0.212417535882E+03   -0.10139E-02   -0.10623E-02 19680   0.188E-02-0.229E-03
CGA:  33    -0.212418309163E+03   -0.77328E-03   -0.80199E-03 19680   0.148E-02-0.283E-03
CGA:  34    -0.212418839276E+03   -0.53011E-03   -0.53996E-03 19680   0.889E-03-0.252E-03
CGA:  35    -0.212419155403E+03   -0.31613E-03   -0.33167E-03 19680   0.517E-03-0.267E-03
CGA:  36    -0.212419307930E+03   -0.15253E-03   -0.21739E-03 19680   0.483E-03-0.313E-03
CGA:  37    -0.212419579796E+03   -0.27187E-03   -0.26948E-03 19680   0.165E-03 0.160E-04
CGA:  38    -0.212419723379E+03   -0.14358E-03   -0.26926E-03 19680   0.646E-03-0.978E-04
CGA:  39    -0.212419889783E+03   -0.16640E-03   -0.19050E-03 19680   0.126E-03 0.759E-04
CGA:  40    -0.212419995031E+03   -0.10525E-03   -0.11948E-03 19680   0.183E-03-0.382E-04
CGA:  41    -0.212420061638E+03   -0.66607E-04   -0.67747E-04 19680   0.211E-03-0.285E-04
CGA:  42    -0.212420179827E+03   -0.11819E-03   -0.13187E-03 19680   0.450E-03-0.566E-04
CGA:  43    -0.212420354883E+03   -0.17506E-03   -0.19723E-03 19680   0.727E-03-0.214E-03
CGA:  44    -0.212420487471E+03   -0.13259E-03   -0.10556E-03 19680   0.608E-03-0.106E-03
CGA:  45    -0.212420641403E+03   -0.15393E-03   -0.14885E-03 19680   0.407E-03-0.517E-04
CGA:  46    -0.212420741496E+03   -0.10009E-03   -0.10480E-03 19680   0.320E-03 0.371E-04
CGA:  47    -0.212420857302E+03   -0.11581E-03   -0.11489E-03 19680   0.251E-03-0.153E-04
CGA:  48    -0.212420916497E+03   -0.59194E-04   -0.62521E-04 19680   0.230E-03 0.486E-04
CGA:  49    -0.212421014138E+03   -0.97642E-04   -0.94017E-04 19680   0.238E-03-0.293E-04
CGA:  50    -0.212421053726E+03   -0.39588E-04   -0.38200E-04 19680   0.234E-03 0.463E-04
CGA:  51    -0.212421097429E+03   -0.43702E-04   -0.51977E-04 19680   0.199E-03 0.293E-04
CGA:  52    -0.212421132091E+03   -0.34662E-04   -0.43648E-04 19680   0.199E-03 0.502E-05
CGA:  53    -0.212421182642E+03   -0.50551E-04   -0.51966E-04 19680   0.217E-03-0.408E-04
CGA:  54    -0.212421245595E+03   -0.62953E-04   -0.54338E-04 19680   0.234E-03-0.884E-04
CGA:  55    -0.212421277929E+03   -0.32334E-04   -0.22768E-04 19680   0.197E-03-0.291E-04
CGA:  56    -0.212421307892E+03   -0.29963E-04   -0.27752E-04 19680   0.130E-03-0.141E-05
CGA:  57    -0.212421323367E+03   -0.15476E-04   -0.18904E-04 19680   0.894E-04 0.185E-04
CGA:  58    -0.212421334155E+03   -0.10788E-04   -0.15512E-04 19680   0.703E-04 0.247E-04
CGA:  59    -0.212421345961E+03   -0.11806E-04   -0.15428E-04 19680   0.604E-04 0.230E-04
CGA:  60    -0.212421359713E+03   -0.13752E-04   -0.15092E-04 19680   0.517E-04 0.131E-04
CGA:  61    -0.212421371566E+03   -0.11852E-04   -0.11400E-04 19680   0.468E-04 0.208E-05
CGA:  62    -0.212421379251E+03   -0.76851E-05   -0.69782E-05 19680   0.437E-04 0.570E-06
   1 F= -.21242138E+03 E0= -.21242138E+03  d E =-.212421E+03  mag=     8.0000
       N       E                     dE             d eps       ncg     rms          ort
SDA:   1    -0.212385769913E+03    0.35602E-01    0.00000E+00 19680   0.980E-01 0.000E+00
CGA:   2    -0.212410839543E+03   -0.25070E-01   -0.25002E-01 19680   0.508E-01-0.122E-02
CGA:   3    -0.212420033427E+03   -0.91939E-02   -0.94062E-02 19680   0.794E-02 0.187E-02
CGA:   4    -0.212421360651E+03   -0.13272E-02   -0.13807E-02 19680   0.138E-02 0.404E-03
CGA:   5    -0.212421718857E+03   -0.35821E-03   -0.35132E-03 19680   0.424E-03-0.135E-03
CGA:   6    -0.212421819581E+03   -0.10072E-03   -0.96964E-04 19680   0.139E-03-0.990E-04
CGA:   7    -0.212421844717E+03   -0.25136E-04   -0.24554E-04 19680   0.370E-04-0.978E-05
CGA:   8    -0.212421849012E+03   -0.42944E-05   -0.58714E-05 19680   0.131E-04 0.136E-04
   2 F= -.21242185E+03 E0= -.21242185E+03  d E =-.469761E-03  mag=     8.0000
       N       E                     dE             d eps       ncg     rms          ort
SDA:   1    -0.212411601504E+03    0.10243E-01    0.00000E+00 19680   0.277E-01 0.000E+00
CGA:   2    -0.212418779123E+03   -0.71776E-02   -0.71671E-02 19680   0.147E-01-0.758E-03
CGA:   3    -0.212421208377E+03   -0.24293E-02   -0.25308E-02 19680   0.217E-02 0.110E-02
CGA:   4    -0.212421545684E+03   -0.33731E-03   -0.36799E-03 19680   0.369E-03 0.282E-03
CGA:   5    -0.212421659653E+03   -0.11397E-03   -0.11512E-03 19680   0.155E-03-0.754E-04
CGA:   6    -0.212421692336E+03   -0.32683E-04   -0.32953E-04 19680   0.587E-04-0.467E-04
CGA:   7    -0.212421702267E+03   -0.99313E-05   -0.98184E-05 19680   0.199E-04-0.501E-05
   3 F= -.21242170E+03 E0= -.21242170E+03  d E =-.323016E-03  mag=     8.0000
       N       E                     dE             d eps       ncg     rms          ort
SDA:   1    -0.212409799375E+03    0.11893E-01    0.00000E+00 19680   0.288E-01 0.000E+00
CGA:   2    -0.212419741404E+03   -0.99420E-02   -0.99842E-02 19680   0.100E-01-0.455E-03
CGA:   3    -0.212421571999E+03   -0.18306E-02   -0.18218E-02 19680   0.164E-02-0.116E-03
CGA:   4    -0.212421870218E+03   -0.29822E-03   -0.29977E-03 19680   0.362E-03 0.220E-04
CGA:   5    -0.212421937097E+03   -0.66880E-04   -0.68437E-04 19680   0.650E-04 0.238E-04
CGA:   6    -0.212421956336E+03   -0.19238E-04   -0.19673E-04 19680   0.221E-04-0.122E-04
CGA:   7    -0.212421959434E+03   -0.30987E-05   -0.32971E-05 19680   0.569E-05 0.298E-05
   4 F= -.21242196E+03 E0= -.21242196E+03  d E =-.257167E-03  mag=     8.0000
       N       E                     dE             d eps       ncg     rms          ort
SDA:   1    -0.212408566079E+03    0.13390E-01    0.00000E+00 19680   0.321E-01 0.000E+00
CGA:   2    -0.212419692655E+03   -0.11127E-01   -0.11184E-01 19680   0.111E-01-0.526E-03
CGA:   3    -0.212421735857E+03   -0.20432E-02   -0.20354E-02 19680   0.181E-02-0.128E-03
CGA:   4    -0.212422064975E+03   -0.32912E-03   -0.33088E-03 19680   0.398E-03 0.303E-04
CGA:   5    -0.212422138282E+03   -0.73307E-04   -0.74918E-04 19680   0.709E-04 0.296E-04
CGA:   6    -0.212422159503E+03   -0.21221E-04   -0.21965E-04 19680   0.248E-04-0.144E-04
CGA:   7    -0.212422162941E+03   -0.34381E-05   -0.36133E-05 19680   0.641E-05 0.311E-05
   5 F= -.21242216E+03 E0= -.21242216E+03  d E =-.460674E-03  mag=     8.0000
       N       E                     dE             d eps       ncg     rms          ort
SDA:   1    -0.212368282584E+03    0.53877E-01    0.00000E+00 19680   0.128E+00 0.000E+00
CGA:   2    -0.212412468692E+03   -0.44186E-01   -0.44306E-01 19680   0.439E-01-0.104E-02
CGA:   3    -0.212420599385E+03   -0.81307E-02   -0.81171E-02 19680   0.722E-02-0.260E-03
CGA:   4    -0.212421933352E+03   -0.13340E-02   -0.13363E-02 19680   0.160E-02 0.500E-04
CGA:   5    -0.212422239885E+03   -0.30653E-03   -0.30882E-03 19680   0.291E-03 0.587E-04
CGA:   6    -0.212422319067E+03   -0.79182E-04   -0.80630E-04 19680   0.809E-04-0.371E-04
CGA:   7    -0.212422333904E+03   -0.14837E-04   -0.14920E-04 19680   0.186E-04 0.430E-05
CGA:   8    -0.212422336300E+03   -0.23959E-05   -0.30637E-05 19680   0.699E-05 0.909E-05
   6 F= -.21242234E+03 E0= -.21242234E+03  d E =-.634033E-03  mag=     8.0000
       N       E                     dE             d eps       ncg     rms          ort
SDA:   1    -0.212395233217E+03    0.27101E-01    0.00000E+00 19680   0.726E-01 0.000E+00
CGA:   2    -0.212414669436E+03   -0.19436E-01   -0.19357E-01 19680   0.339E-01 0.175E-02
CGA:   3    -0.212421759947E+03   -0.70905E-02   -0.70416E-02 19680   0.689E-02-0.241E-02
CGA:   4    -0.212422857898E+03   -0.10980E-02   -0.10886E-02 19680   0.120E-02-0.182E-03
CGA:   5    -0.212423082381E+03   -0.22448E-03   -0.22673E-03 19680   0.228E-03 0.910E-04
CGA:   6    -0.212423122393E+03   -0.40012E-04   -0.42676E-04 19680   0.496E-04 0.601E-04
CGA:   7    -0.212423126584E+03   -0.41913E-05   -0.74060E-05 19680   0.190E-04 0.330E-04
   7 F= -.21242313E+03 E0= -.21242313E+03  d E =-.790284E-03  mag=     8.0000
       N       E                     dE             d eps       ncg     rms          ort
SDA:   1    -0.212279505873E+03    0.14362E+00    0.00000E+00 19680   0.375E+00 0.000E+00
CGA:   2    -0.212381215439E+03   -0.10171E+00   -0.10146E+00 19680   0.180E+00 0.413E-02
CGA:   3    -0.212416341744E+03   -0.35126E-01   -0.35032E-01 19680   0.324E-01-0.526E-02
CGA:   4    -0.212421898151E+03   -0.55564E-02   -0.55364E-02 19680   0.599E-02-0.610E-03
CGA:   5    -0.212423098770E+03   -0.12006E-02   -0.12011E-02 19680   0.117E-02 0.156E-03
CGA:   6    -0.212423326897E+03   -0.22813E-03   -0.23082E-03 19680   0.232E-03 0.178E-03
CGA:   7    -0.212423369865E+03   -0.42968E-04   -0.45995E-04 19680   0.629E-04 0.881E-04
CGA:   8    -0.212423385833E+03   -0.15969E-04   -0.16441E-04 19680   0.266E-04 0.311E-04
CGA:   9    -0.212423394240E+03   -0.84062E-05   -0.83212E-05 19680   0.129E-04 0.150E-04
   8 F= -.21242339E+03 E0= -.21242339E+03  d E =-.105794E-02  mag=     8.0000
       N       E                     dE             d eps       ncg     rms          ort
SDA:   1    -0.212402436253E+03    0.20950E-01    0.00000E+00 19680   0.555E-01 0.000E+00
CGA:   2    -0.212417912888E+03   -0.15477E-01   -0.15611E-01 19680   0.288E-01-0.168E-02
CGA:   3    -0.212422530270E+03   -0.46174E-02   -0.46891E-02 19680   0.426E-02 0.192E-02
CGA:   4    -0.212423254942E+03   -0.72467E-03   -0.74465E-03 19680   0.752E-03 0.501E-03
CGA:   5    -0.212423462151E+03   -0.20721E-03   -0.21128E-03 19680   0.235E-03-0.818E-04
CGA:   6    -0.212423514973E+03   -0.52823E-04   -0.57249E-04 19680   0.894E-04-0.637E-04
CGA:   7    -0.212423517988E+03   -0.30150E-05   -0.33351E-04 19680   0.194E-03-0.998E-04
CGA:   8    -0.212423538185E+03   -0.20196E-04   -0.24602E-04 19680   0.245E-04 0.458E-04
CGA:   9    -0.212423540053E+03   -0.18679E-05   -0.34607E-05 19680   0.103E-04 0.153E-04
   9 F= -.21242354E+03 E0= -.21242354E+03  d E =-.120375E-02  mag=     8.0000
       N       E                     dE             d eps       ncg     rms          ort
SDA:   1    -0.212410050872E+03    0.13487E-01    0.00000E+00 19680   0.354E-01 0.000E+00
CGA:   2    -0.212419953180E+03   -0.99023E-02   -0.99908E-02 19680   0.185E-01-0.128E-02
CGA:   3    -0.212422804611E+03   -0.28514E-02   -0.29268E-02 19680   0.269E-02 0.146E-02
CGA:   4    -0.212423241993E+03   -0.43738E-03   -0.45972E-03 19680   0.482E-03 0.400E-03
CGA:   5    -0.212423378582E+03   -0.13659E-03   -0.13858E-03 19680   0.161E-03-0.510E-04
CGA:   6    -0.212423415249E+03   -0.36667E-04   -0.39716E-04 19680   0.654E-04-0.482E-04
CGA:   7    -0.212423344959E+03    0.70290E-04   -0.41270E-04 19680   0.598E-03-0.163E-03
CGA:   8    -0.212423419870E+03   -0.74911E-04   -0.84789E-04 19680   0.603E-04 0.904E-04
CGA:   9    -0.212423429744E+03   -0.98741E-05   -0.11699E-04 19680   0.169E-04 0.238E-04
  10 F= -.21242343E+03 E0= -.21242343E+03  d E =-.109344E-02  mag=     8.0000
       N       E                     dE             d eps       ncg     rms          ort
SDA:   1    -0.212417510735E+03    0.59091E-02    0.00000E+00 19680   0.180E-01 0.000E+00
CGA:   2    -0.212421600139E+03   -0.40894E-02   -0.41030E-02 19680   0.768E-02 0.127E-02
CGA:   3    -0.212423258047E+03   -0.16579E-02   -0.16590E-02 19680   0.176E-02 0.300E-04
CGA:   4    -0.212423605966E+03   -0.34792E-03   -0.34375E-03 19680   0.317E-03-0.995E-04
CGA:   5    -0.212423683945E+03   -0.77979E-04   -0.81392E-04 19680   0.120E-03-0.896E-04
CGA:   6    -0.212423690047E+03   -0.61022E-05   -0.10229E-04 19680   0.373E-04 0.351E-04
  11 F= -.21242369E+03 E0= -.21242369E+03  d E =-.260303E-03  mag=     8.0000
       N       E                     dE             d eps       ncg     rms          ort
SDA:   1    -0.212366848110E+03    0.56836E-01    0.00000E+00 19680   0.161E+00 0.000E+00
CGA:   2    -0.212405259539E+03   -0.38411E-01   -0.38343E-01 19680   0.727E-01 0.436E-02
CGA:   3    -0.212419680063E+03   -0.14421E-01   -0.14420E-01 19680   0.158E-01-0.360E-04
CGA:   4    -0.212422716393E+03   -0.30363E-02   -0.30221E-02 19680   0.267E-02-0.467E-03
CGA:   5    -0.212423321980E+03   -0.60559E-03   -0.60884E-03 19680   0.613E-03-0.225E-03
CGA:   6    -0.212423414969E+03   -0.92988E-04   -0.99052E-04 19680   0.136E-03 0.136E-03
CGA:   7    -0.212423429765E+03   -0.14796E-04   -0.21806E-04 19680   0.500E-04 0.797E-04
CGA:   8    -0.212423437588E+03   -0.78234E-05   -0.88832E-05 19680   0.236E-04 0.290E-04
  12 F= -.21242344E+03 E0= -.21242344E+03  d E =-.784378E-05  mag=     8.0000
       N       E                     dE             d eps       ncg     rms          ort
SDA:   1    -0.212417876254E+03    0.55535E-02    0.00000E+00 19680   0.153E-01 0.000E+00
CGA:   2    -0.212421962457E+03   -0.40862E-02   -0.41920E-02 19680   0.924E-02-0.161E-02
CGA:   3    -0.212423344390E+03   -0.13819E-02   -0.13861E-02 19680   0.164E-02 0.955E-04
CGA:   4    -0.212423579854E+03   -0.23546E-03   -0.25055E-03 19680   0.271E-03 0.260E-03
CGA:   5    -0.212423622619E+03   -0.42765E-04   -0.47029E-04 19680   0.717E-04 0.748E-04
CGA:   6    -0.212423639470E+03   -0.16850E-04   -0.17073E-04 19680   0.213E-04 0.127E-04
CGA:   7    -0.212423652430E+03   -0.12960E-04    0.93059E-05 19680   0.770E-05 0.527E-05
CGA:   8    -0.212423661510E+03   -0.90804E-05    0.73487E-06 19680   0.301E-05 0.201E-05
  13 F= -.21242366E+03 E0= -.21242366E+03  d E =-.231766E-03  mag=     8.0000
       N       E                     dE             d eps       ncg     rms          ort
SDA:   1    -0.212416533387E+03    0.71190E-02    0.00000E+00 19680   0.193E-01 0.000E+00
CGA:   2    -0.212421611432E+03   -0.50780E-02   -0.51974E-02 19680   0.111E-01-0.182E-02
CGA:   3    -0.212423348827E+03   -0.17374E-02   -0.17393E-02 19680   0.203E-02 0.589E-04
CGA:   4    -0.212423658746E+03   -0.30992E-03   -0.32211E-03 19680   0.323E-03 0.260E-03
CGA:   5    -0.212423713644E+03   -0.54898E-04   -0.58407E-04 19680   0.815E-04 0.834E-04
CGA:   6    -0.212423734026E+03   -0.20383E-04   -0.20396E-04 19680   0.250E-04 0.908E-05
CGA:   7    -0.212423749665E+03   -0.15639E-04    0.68692E-05 19680   0.780E-05 0.675E-05
CGA:   8    -0.212423758782E+03   -0.91163E-05    0.76424E-06 19680   0.319E-05 0.233E-05
  14 F= -.21242376E+03 E0= -.21242376E+03  d E =-.329037E-03  mag=     8.0000
