       N       E                     dE             d eps       ncg     rms          ort
DAV:   1     0.385677910130E+04    0.38568E+04   -0.13020E+05 25280   0.202E+03
DAV:   2     0.369468251401E+03   -0.34873E+04   -0.32044E+04 25280   0.569E+02
DAV:   3    -0.296275801518E+03   -0.66574E+03   -0.64312E+03 25280   0.258E+02
DAV:   4    -0.341194075596E+03   -0.44918E+02   -0.44211E+02 25280   0.680E+01
DAV:   5    -0.342446521035E+03   -0.12524E+01   -0.12469E+01 25280   0.131E+01
SDA:   6    -0.212559702248E+03    0.12989E+03   -0.12469E+01 25280   0.361E+03 0.000E+00
CGA:   7    -0.256198658423E+03   -0.43639E+02   -0.46161E+02 25280   0.365E+02 0.440E+01
CGA:   8    -0.262169815432E+03   -0.59712E+01   -0.59831E+01 25280   0.104E+02 0.170E+00
CGA:   9    -0.264420544791E+03   -0.22507E+01   -0.22497E+01 25280   0.507E+01 0.493E-01
CGA:  10    -0.265624782979E+03   -0.12042E+01   -0.12068E+01 25280   0.251E+01-0.503E-01
CGA:  11    -0.266174979435E+03   -0.55020E+00   -0.55160E+00 25280   0.732E+00-0.554E-01
CGA:  12    -0.266333060739E+03   -0.15808E+00   -0.15864E+00 25280   0.220E+00-0.247E-01
CGA:  13    -0.266383244857E+03   -0.50184E-01   -0.50355E-01 25280   0.640E-01-0.469E-02
CGA:  14    -0.266398962996E+03   -0.15718E-01   -0.15657E-01 25280   0.217E-01 0.126E-02
CGA:  15    -0.266405441980E+03   -0.64790E-02   -0.64170E-02 25280   0.884E-02 0.712E-03
CGA:  16    -0.266408002918E+03   -0.25609E-02   -0.25054E-02 25280   0.326E-02 0.840E-03
CGA:  17    -0.266408910460E+03   -0.90754E-03   -0.88003E-03 25280   0.119E-02 0.801E-03
CGA:  18    -0.266409372546E+03   -0.46209E-03   -0.44360E-03 25280   0.531E-03 0.212E-03
CGA:  19    -0.266409442806E+03   -0.70260E-04   -0.52960E-03 25280   0.174E-02-0.734E-03
CGA:  20    -0.266409814487E+03   -0.37168E-03   -0.38181E-03 25280   0.269E-03 0.335E-03
CGA:  21    -0.266409902150E+03   -0.87663E-04   -0.85716E-04 25280   0.893E-04 0.104E-03
CGA:  22    -0.266409939703E+03   -0.37553E-04   -0.35925E-04 25280   0.421E-04 0.389E-04
CGA:  23    -0.266409955448E+03   -0.15745E-04   -0.15534E-04 25280   0.290E-04 0.333E-04
CGA:  24    -0.266409982898E+03   -0.27450E-04   -0.32921E-04 25280   0.673E-04-0.633E-05
CGA:  25    -0.266410000174E+03   -0.17276E-04   -0.63355E-04 25280   0.153E-03-0.496E-04
CGA:  26    -0.266410010762E+03   -0.10588E-04   -0.25420E-04 25280   0.591E-04 0.823E-04
CGA:  27    -0.266410013096E+03   -0.23345E-05   -0.96335E-05 25280   0.333E-04 0.367E-04
   1 F= -.26641001E+03 E0= -.26641001E+03  d E =-.266410E+03  mag=    16.0000
       N       E                     dE             d eps       ncg     rms          ort
SDA:   1    -0.266370122018E+03    0.39889E-01    0.00000E+00 25280   0.104E+00 0.000E+00
CGA:   2    -0.266401965398E+03   -0.31843E-01   -0.31855E-01 25280   0.413E-01 0.148E-02
CGA:   3    -0.266409040906E+03   -0.70755E-02   -0.70889E-02 25280   0.952E-02 0.603E-04
CGA:   4    -0.266410686118E+03   -0.16452E-02   -0.16586E-02 25280   0.205E-02 0.951E-04
CGA:   5    -0.266411046296E+03   -0.36018E-03   -0.36673E-03 25280   0.522E-03 0.524E-04
CGA:   6    -0.266411119690E+03   -0.73394E-04   -0.85882E-04 25280   0.121E-03 0.929E-04
CGA:   7    -0.266411126266E+03   -0.65764E-05   -0.18437E-04 25280   0.487E-04 0.746E-04
   2 F= -.26641113E+03 E0= -.26641113E+03  d E =-.111317E-02  mag=    16.0000
       N       E                     dE             d eps       ncg     rms          ort
SDA:   1    -0.266282249008E+03    0.12887E+00    0.00000E+00 25280   0.324E+00 0.000E+00
CGA:   2    -0.266382896627E+03   -0.10065E+00   -0.10055E+00 25280   0.130E+00 0.270E-02
CGA:   3    -0.266404905659E+03   -0.22009E-01   -0.22018E-01 25280   0.300E-01-0.209E-04
CGA:   4    -0.266410073583E+03   -0.51679E-02   -0.51861E-02 25280   0.659E-02 0.171E-03
CGA:   5    -0.266411221210E+03   -0.11476E-02   -0.11587E-02 25280   0.164E-02 0.119E-03
CGA:   6    -0.266411482192E+03   -0.26098E-03   -0.27968E-03 25280   0.366E-03 0.198E-03
CGA:   7    -0.266411523553E+03   -0.41361E-04   -0.60142E-04 25280   0.114E-03 0.170E-03
CGA:   8    -0.266411534563E+03   -0.11009E-04   -0.21018E-04 25280   0.494E-04 0.800E-04
CGA:   9    -0.266411558813E+03   -0.24251E-04   -0.28660E-04 25280   0.780E-04-0.131E-04
CGA:  10    -0.266411559792E+03   -0.97841E-06   -0.58002E-05 25280   0.381E-04 0.301E-04
   3 F= -.26641156E+03 E0= -.26641156E+03  d E =-.154670E-02  mag=    16.0000
       N       E                     dE             d eps       ncg     rms          ort
SDA:   1    -0.266399731335E+03    0.11827E-01    0.00000E+00 25280   0.292E-01 0.000E+00
CGA:   2    -0.266408991144E+03   -0.92598E-02   -0.93161E-02 25280   0.127E-01-0.760E-03
CGA:   3    -0.266410982701E+03   -0.19916E-02   -0.19943E-02 25280   0.261E-02 0.285E-04
CGA:   4    -0.266411463458E+03   -0.48076E-03   -0.47805E-03 25280   0.631E-03-0.458E-04
CGA:   5    -0.266411576157E+03   -0.11270E-03   -0.11060E-03 25280   0.174E-03-0.339E-04
CGA:   6    -0.266411618274E+03   -0.42117E-04   -0.49241E-04 25280   0.175E-03-0.116E-03
CGA:   7    -0.266411648022E+03   -0.29748E-04   -0.26508E-04 25280   0.333E-04-0.365E-04
CGA:   8    -0.266411652675E+03   -0.46525E-05   -0.47148E-05 25280   0.465E-05 0.108E-05
   4 F= -.26641165E+03 E0= -.26641165E+03  d E =-.163958E-02  mag=    16.0000
       N       E                     dE             d eps       ncg     rms          ort
SDA:   1    -0.266398478554E+03    0.13169E-01    0.00000E+00 25280   0.339E-01 0.000E+00
CGA:   2    -0.266409285667E+03   -0.10807E-01   -0.10744E-01 25280   0.138E-01 0.677E-03
CGA:   3    -0.266411581299E+03   -0.22956E-02   -0.23103E-02 25280   0.292E-02 0.222E-03
CGA:   4    -0.266412056523E+03   -0.47522E-03   -0.47999E-03 25280   0.663E-03 0.721E-04
CGA:   5    -0.266412172575E+03   -0.11605E-03   -0.11888E-03 25280   0.145E-03 0.583E-04
CGA:   6    -0.266412194503E+03   -0.21928E-04   -0.24473E-04 25280   0.338E-04 0.388E-04
CGA:   7    -0.266412199560E+03   -0.50572E-05   -0.62959E-05 25280   0.117E-04 0.175E-04
   5 F= -.26641220E+03 E0= -.26641220E+03  d E =-.546885E-03  mag=    16.0000
       N       E                     dE             d eps       ncg     rms          ort
SDA:   1    -0.266339608253E+03    0.72586E-01    0.00000E+00 25280   0.179E+00 0.000E+00
CGA:   2    -0.266396866452E+03   -0.57258E-01   -0.57092E-01 25280   0.746E-01 0.160E-02
CGA:   3    -0.266409108865E+03   -0.12242E-01   -0.12279E-01 25280   0.163E-01 0.576E-03
CGA:   4    -0.266411700376E+03   -0.25915E-02   -0.26025E-02 25280   0.380E-02 0.164E-03
CGA:   5    -0.266412387320E+03   -0.68694E-03   -0.69215E-03 25280   0.886E-03 0.132E-03
CGA:   6    -0.266412540215E+03   -0.15290E-03   -0.15768E-03 25280   0.201E-03 0.106E-03
CGA:   7    -0.266412581430E+03   -0.41215E-04   -0.42459E-04 25280   0.540E-04 0.470E-04
CGA:   8    -0.266412598827E+03   -0.17397E-04   -0.17188E-04 25280   0.250E-04 0.468E-05
CGA:   9    -0.266412607614E+03   -0.87874E-05   -0.97403E-05 25280   0.190E-04-0.672E-05
   6 F= -.26641261E+03 E0= -.26641261E+03  d E =-.954939E-03  mag=    16.0000
       N       E                     dE             d eps       ncg     rms          ort
SDA:   1    -0.266410429405E+03    0.21694E-02    0.00000E+00 25280   0.513E-02 0.000E+00
CGA:   2    -0.266412128077E+03   -0.16987E-02   -0.17243E-02 25280   0.239E-02-0.225E-03
CGA:   3    -0.266412506639E+03   -0.37856E-03   -0.37291E-03 25280   0.531E-03-0.898E-04
CGA:   4    -0.266412590700E+03   -0.84061E-04   -0.82406E-04 25280   0.143E-03-0.269E-04
CGA:   5    -0.266412618459E+03   -0.27759E-04   -0.27335E-04 25280   0.394E-04-0.222E-04
CGA:   6    -0.266412626347E+03   -0.78881E-05   -0.10577E-04 25280   0.425E-04-0.274E-04
   7 F= -.26641263E+03 E0= -.26641263E+03  d E =-.973672E-03  mag=    16.0000
       N       E                     dE             d eps       ncg     rms          ort
SDA:   1    -0.266409148948E+03    0.34695E-02    0.00000E+00 25280   0.818E-02 0.000E+00
CGA:   2    -0.266411838776E+03   -0.26898E-02   -0.27222E-02 25280   0.370E-02-0.287E-03
CGA:   3    -0.266412412863E+03   -0.57409E-03   -0.56737E-03 25280   0.827E-03-0.103E-03
CGA:   4    -0.266412546175E+03   -0.13331E-03   -0.13151E-03 25280   0.210E-03-0.318E-04
CGA:   5    -0.266412585923E+03   -0.39748E-04   -0.39099E-04 25280   0.630E-04-0.265E-04
CGA:   6    -0.266412599004E+03   -0.13081E-04   -0.14559E-04 25280   0.419E-04-0.312E-04
CGA:   7    -0.266412603923E+03   -0.49195E-05   -0.55466E-05 25280   0.201E-04-0.146E-04
   8 F= -.26641260E+03 E0= -.26641260E+03  d E =-.951248E-03  mag=    16.0000
       N       E                     dE             d eps       ncg     rms          ort
SDA:   1    -0.266411278480E+03    0.13205E-02    0.00000E+00 25280   0.343E-02 0.000E+00
CGA:   2    -0.266412331636E+03   -0.10532E-02   -0.10353E-02 25280   0.135E-02 0.208E-03
CGA:   3    -0.266412566302E+03   -0.23467E-03   -0.23890E-03 25280   0.317E-03 0.777E-04
CGA:   4    -0.266412616719E+03   -0.50416E-04   -0.51995E-04 25280   0.610E-04 0.249E-04
CGA:   5    -0.266412625879E+03   -0.91605E-05   -0.10143E-04 25280   0.139E-04 0.162E-04
CGA:   6    -0.266412626706E+03   -0.82717E-06   -0.18389E-05 25280   0.523E-05 0.942E-05
   9 F= -.26641263E+03 E0= -.26641263E+03  d E =-.974031E-03  mag=    16.0000
       N       E                     dE             d eps       ncg     rms          ort
SDA:   1    -0.266406636325E+03    0.59896E-02    0.00000E+00 25280   0.153E-01 0.000E+00
CGA:   2    -0.266411970253E+03   -0.53339E-02   -0.52348E-02 25280   0.445E-02 0.694E-03
CGA:   3    -0.266412738683E+03   -0.76843E-03   -0.78463E-03 25280   0.832E-03 0.414E-03
CGA:   4    -0.266412884339E+03   -0.14566E-03   -0.15040E-03 25280   0.202E-03 0.117E-03
CGA:   5    -0.266412920630E+03   -0.36291E-04   -0.38173E-04 25280   0.442E-04 0.491E-04
CGA:   6    -0.266412932255E+03   -0.11625E-04   -0.11580E-04 25280   0.141E-04 0.495E-05
CGA:   7    -0.266412922211E+03    0.10044E-04   -0.12353E-04 25280   0.117E-03-0.381E-04
CGA:   8    -0.266412930252E+03   -0.80410E-05   -0.12365E-04 25280   0.174E-04 0.344E-04
  10 F= -.26641293E+03 E0= -.26641293E+03  d E =-.303546E-03  mag=    16.0000
       N       E                     dE             d eps       ncg     rms          ort
SDA:   1    -0.266355951564E+03    0.56971E-01    0.00000E+00 25280   0.137E+00 0.000E+00
CGA:   2    -0.266404345051E+03   -0.48393E-01   -0.48120E-01 25280   0.421E-01 0.200E-02
CGA:   3    -0.266411630383E+03   -0.72853E-02   -0.73502E-02 25280   0.813E-02 0.120E-02
CGA:   4    -0.266413052326E+03   -0.14219E-02   -0.14374E-02 25280   0.202E-02 0.301E-03
CGA:   5    -0.266413428295E+03   -0.37597E-03   -0.38074E-03 25280   0.425E-03 0.123E-03
CGA:   6    -0.266413525811E+03   -0.97516E-04   -0.97468E-04 25280   0.138E-03-0.249E-04
CGA:   7    -0.266413560045E+03   -0.34235E-04   -0.40458E-04 25280   0.975E-04-0.671E-04
CGA:   8    -0.266413563411E+03   -0.33653E-05   -0.55779E-05 25280   0.468E-04 0.198E-04
  11 F= -.26641356E+03 E0= -.26641356E+03  d E =-.936704E-03  mag=    16.0000
       N       E                     dE             d eps       ncg     rms          ort
SDA:   1    -0.266179926122E+03    0.23363E+00    0.00000E+00 25280   0.550E+00 0.000E+00
CGA:   2    -0.266375362666E+03   -0.19544E+00   -0.19476E+00 25280   0.172E+00 0.447E-02
CGA:   3    -0.266405283385E+03   -0.29921E-01   -0.30036E-01 25280   0.335E-01 0.254E-02
CGA:   4    -0.266411128560E+03   -0.58452E-02   -0.58722E-02 25280   0.847E-02 0.615E-03
CGA:   5    -0.266412689935E+03   -0.15614E-02   -0.15695E-02 25280   0.185E-02 0.258E-03
CGA:   6    -0.266413073228E+03   -0.38329E-03   -0.38275E-03 25280   0.545E-03-0.539E-04
CGA:   7    -0.266413205500E+03   -0.13227E-03   -0.13917E-03 25280   0.231E-03-0.133E-03
CGA:   8    -0.266413231484E+03   -0.25984E-04   -0.28533E-04 25280   0.713E-04 0.509E-04
CGA:   9    -0.266413237540E+03   -0.60557E-05   -0.10121E-04 25280   0.329E-04 0.429E-04
  12 F= -.26641324E+03 E0= -.26641324E+03  d E =-.610834E-03  mag=    16.0000
       N       E                     dE             d eps       ncg     rms          ort
SDA:   1    -0.266346457070E+03    0.66774E-01    0.00000E+00 25280   0.155E+00 0.000E+00
CGA:   2    -0.266402561632E+03   -0.56105E-01   -0.56366E-01 25280   0.498E-01-0.176E-02
CGA:   3    -0.266411434308E+03   -0.88727E-02   -0.88277E-02 25280   0.102E-01-0.123E-02
CGA:   4    -0.266413158685E+03   -0.17244E-02   -0.17127E-02 25280   0.262E-02-0.279E-03
CGA:   5    -0.266413635094E+03   -0.47641E-03   -0.47423E-03 25280   0.551E-03-0.829E-04
CGA:   6    -0.266413724216E+03   -0.89121E-04   -0.91588E-04 25280   0.120E-03 0.614E-04
CGA:   7    -0.266413739381E+03   -0.15165E-04   -0.18580E-04 25280   0.319E-04 0.487E-04
CGA:   8    -0.266413745127E+03   -0.57457E-05   -0.66818E-05 25280   0.130E-04 0.164E-04
CGA:   9    -0.266413751117E+03   -0.59899E-05    0.10309E-04 25280   0.584E-05 0.507E-05
  13 F= -.26641375E+03 E0= -.26641375E+03  d E =-.112441E-02  mag=    16.0000
       N       E                     dE             d eps       ncg     rms          ort
SDA:   1    -0.266409638735E+03    0.41064E-02    0.00000E+00 25280   0.107E-01 0.000E+00
CGA:   2    -0.266413262906E+03   -0.36242E-02   -0.35118E-02 25280   0.322E-02 0.892E-03
CGA:   3    -0.266413842339E+03   -0.57943E-03   -0.58877E-03 25280   0.625E-03 0.228E-03
CGA:   4    -0.266413933121E+03   -0.90782E-04   -0.99779E-04 25280   0.125E-03 0.154E-03
CGA:   5    -0.266413961041E+03   -0.27920E-04   -0.28653E-04 25280   0.353E-04 0.362E-04
CGA:   6    -0.266413967821E+03   -0.67795E-05   -0.72910E-05 25280   0.889E-05 0.118E-04
  14 F= -.26641397E+03 E0= -.26641397E+03  d E =-.216704E-03  mag=    16.0000
       N       E                     dE             d eps       ncg     rms          ort
SDA:   1    -0.266413842412E+03    0.11863E-03    0.00000E+00 25280   0.501E-03 0.000E+00
CGA:   2    -0.266413972463E+03   -0.13005E-03   -0.12204E-03 25280   0.143E-03 0.161E-03
CGA:   3    -0.266413999943E+03   -0.27480E-04   -0.29986E-04 25280   0.383E-04 0.669E-04
CGA:   4    -0.266414001731E+03   -0.17883E-05   -0.53418E-05 25280   0.160E-04 0.357E-04
CGA:   5    -0.266414001810E+03   -0.78291E-07   -0.13652E-05 25280   0.102E-04 0.123E-04
CGA:   6    -0.266414001766E+03    0.43197E-07   -0.83432E-06 25280   0.731E-05 0.857E-05
  15 F= -.26641400E+03 E0= -.26641400E+03  d E =-.250650E-03  mag=    16.0000
       N       E                     dE             d eps       ncg     rms          ort
SDA:   1    -0.266413564140E+03    0.43767E-03    0.00000E+00 25280   0.192E-02 0.000E+00
CGA:   2    -0.266413958553E+03   -0.39441E-03   -0.38846E-03 25280   0.791E-03 0.205E-03
CGA:   3    -0.266414133682E+03   -0.17513E-03   -0.17439E-03 25280   0.201E-03 0.300E-04
CGA:   4    -0.266414165808E+03   -0.32126E-04   -0.32813E-04 25280   0.415E-04 0.358E-04
CGA:   5    -0.266414175687E+03   -0.98794E-05   -0.98538E-05 25280   0.146E-04 0.956E-06
CGA:   6    -0.266414177461E+03   -0.17744E-05   -0.19782E-05 25280   0.347E-05 0.463E-05
  16 F= -.26641418E+03 E0= -.26641418E+03  d E =-.175695E-03  mag=    16.0000
       N       E                     dE             d eps       ncg     rms          ort
SDA:   1    -0.266408588078E+03    0.55876E-02    0.00000E+00 25280   0.174E-01 0.000E+00
CGA:   2    -0.266412448965E+03   -0.38609E-02   -0.38257E-02 25280   0.804E-02 0.671E-03
CGA:   3    -0.266414036837E+03   -0.15879E-02   -0.15872E-02 25280   0.195E-02 0.287E-04
CGA:   4    -0.266414386992E+03   -0.35015E-03   -0.34957E-03 25280   0.447E-03 0.718E-04
CGA:   5    -0.266414475352E+03   -0.88360E-04   -0.89123E-04 25280   0.151E-03-0.363E-04
CGA:   6    -0.266414497687E+03   -0.22336E-04   -0.22495E-04 25280   0.303E-04 0.150E-04
CGA:   7    -0.266414496374E+03    0.13136E-05   -0.17737E-05 25280   0.195E-04 0.261E-04
  17 F= -.26641450E+03 E0= -.26641450E+03  d E =-.494607E-03  mag=    16.0000
