       N       E                     dE             d eps       ncg     rms          rms(c)
DAV:   1     0.690539158584E+03    0.69054E+03   -0.31255E+04100614   0.186E+03
DAV:   2    -0.806804239602E+01   -0.69861E+03   -0.65089E+03106968   0.545E+02
DAV:   3    -0.826305458588E+02   -0.74563E+02   -0.73684E+02109872   0.188E+02
DAV:   4    -0.842384161021E+02   -0.16079E+01   -0.16009E+01113589   0.294E+01
DAV:   5    -0.842666598626E+02   -0.28244E-01   -0.28236E-01107907   0.428E+00    0.192E+01
DAV:   6    -0.674916682687E+02    0.16775E+02   -0.18183E+01121263   0.377E+01    0.173E+01
DAV:   7    -0.678085251433E+02   -0.31686E+00   -0.38303E+00105912   0.122E+01    0.123E+01
DAV:   8    -0.678794562133E+02   -0.70931E-01   -0.92905E-01106014   0.938E+00    0.531E+00
DAV:   9    -0.679235483122E+02   -0.44092E-01   -0.20586E-01101958   0.406E+00    0.180E+00
DAV:  10    -0.679856736945E+02   -0.62125E-01   -0.17772E-02103446   0.114E+00    0.215E-01
DAV:  11    -0.679855866308E+02    0.87064E-04   -0.41568E-03118935   0.565E-01    0.964E-02
DAV:  12    -0.679861426340E+02   -0.55600E-03   -0.49290E-04105399   0.194E-01    0.545E-02
DAV:  13    -0.679858645873E+02    0.27805E-03   -0.91264E-05 97890   0.710E-02    0.310E-02
DAV:  14    -0.679859546728E+02   -0.90085E-04   -0.25396E-05 79602   0.435E-02    0.156E-02
DAV:  15    -0.679858793318E+02    0.75341E-04   -0.12457E-05 53220   0.299E-02    0.377E-03
DAV:  16    -0.679859227870E+02   -0.43455E-04   -0.27019E-06 50220   0.130E-02    0.264E-03
DAV:  17    -0.679859325985E+02   -0.98115E-05   -0.36849E-07 49806   0.433E-03
   1 F= -.67985933E+02 E0= -.67985933E+02  d E =-.679859E+02  mag=    -0.0000
       N       E                     dE             d eps       ncg     rms          rms(c)
DAV:   1    -0.681684180993E+02   -0.18250E+00   -0.41664E+00102048   0.192E+01    0.373E+00
DAV:   2    -0.680194226639E+02    0.14900E+00   -0.52859E-01102180   0.546E+00    0.214E+00
DAV:   3    -0.679943164326E+02    0.25106E-01   -0.61341E-02110778   0.219E+00    0.838E-01
DAV:   4    -0.679922698369E+02    0.20466E-02   -0.29102E-03113274   0.434E-01    0.550E-01
DAV:   5    -0.679912144056E+02    0.10554E-02   -0.78813E-04108780   0.224E-01    0.129E-01
DAV:   6    -0.679908685992E+02    0.34581E-03   -0.11808E-04105336   0.962E-02    0.168E-02
DAV:   7    -0.679911729611E+02   -0.30436E-03   -0.75489E-06 63702   0.242E-02    0.835E-03
DAV:   8    -0.679910787997E+02    0.94161E-04   -0.14560E-06 52110   0.116E-02    0.489E-03
DAV:   9    -0.679911047363E+02   -0.25937E-04   -0.35491E-07 50262   0.592E-03    0.122E-03
DAV:  10    -0.679911064907E+02   -0.17544E-05   -0.82427E-08 49770   0.242E-03
   2 F= -.67991106E+02 E0= -.67991106E+02  d E =-.517389E-02  mag=    -0.0000
       N       E                     dE             d eps       ncg     rms          rms(c)
DAV:   1    -0.679963260919E+02   -0.52214E-02   -0.11674E-01100992   0.324E+00    0.625E-01
DAV:   2    -0.679885762286E+02    0.77499E-02   -0.14535E-02100944   0.906E-01    0.365E-01
DAV:   3    -0.679913339047E+02   -0.27577E-02   -0.16200E-03110262   0.362E-01    0.142E-01
DAV:   4    -0.679912609743E+02    0.72930E-04   -0.92985E-05109596   0.785E-02    0.952E-02
DAV:   5    -0.679912140340E+02    0.46940E-04   -0.21806E-05 90954   0.375E-02    0.235E-02
DAV:   6    -0.679913169545E+02   -0.10292E-03   -0.35409E-06 52530   0.178E-02    0.313E-03
DAV:   7    -0.679912705100E+02    0.46445E-04   -0.75984E-07 49758   0.783E-03    0.161E-03
DAV:   8    -0.679912819676E+02   -0.11458E-04   -0.20499E-07 49632   0.417E-03    0.196E-03
DAV:   9    -0.679912787204E+02    0.32472E-05   -0.51258E-08 49632   0.209E-03
   3 F= -.67991279E+02 E0= -.67991279E+02  d E =-.534612E-02  mag=    -0.0000
       N       E                     dE             d eps       ncg     rms          rms(c)
DAV:   1    -0.679914940490E+02   -0.21208E-03   -0.46873E-03100992   0.649E-01    0.125E-01
DAV:   2    -0.679906723375E+02    0.82171E-03   -0.58403E-04100896   0.182E-01    0.729E-02
DAV:   3    -0.679912600065E+02   -0.58767E-03   -0.65011E-05106716   0.726E-02    0.283E-02
DAV:   4    -0.679912546368E+02    0.53697E-05   -0.37892E-06 50826   0.161E-02    0.193E-02
DAV:   5    -0.679912664430E+02   -0.11806E-04   -0.15361E-06 50034   0.986E-03    0.587E-03
DAV:   6    -0.679912685773E+02   -0.21343E-05   -0.35756E-07 49632   0.561E-03
   4 F= -.67991269E+02 E0= -.67991269E+02  d E =-.533598E-02  mag=    -0.0000
       N       E                     dE             d eps       ncg     rms          rms(c)
DAV:   1    -0.679916327432E+02   -0.36630E-03   -0.12434E-01 99264   0.252E+00    0.186E-01
DAV:   2    -0.679920131020E+02   -0.38036E-03   -0.37942E-03106248   0.445E-01    0.114E-01
DAV:   3    -0.679915728512E+02    0.44025E-03   -0.12613E-04126276   0.952E-02    0.571E-02
DAV:   4    -0.679915830257E+02   -0.10175E-04   -0.43162E-05105324   0.521E-02    0.218E-02
DAV:   5    -0.679916366909E+02   -0.53665E-04   -0.88956E-06 52272   0.246E-02    0.104E-02
DAV:   6    -0.679916267344E+02    0.99565E-05   -0.20122E-06 50592   0.124E-02
   5 F= -.67991627E+02 E0= -.67991627E+02  d E =-.358157E-03  mag=    -0.0000
