       N       E                     dE             d eps       ncg     rms          rms(c)
DAV:   1     0.856238958775E+03    0.85624E+03   -0.41877E+04115443   0.201E+03
DAV:   2     0.114107440982E+02   -0.84483E+03   -0.80466E+03125463   0.566E+02
DAV:   3    -0.827860006979E+02   -0.94197E+02   -0.87408E+02126573   0.191E+02
DAV:   4    -0.854825346466E+02   -0.26965E+01   -0.26880E+01122781   0.339E+01
DAV:   5    -0.855306841649E+02   -0.48150E-01   -0.48141E-01136056   0.462E+00    0.564E+00
DAV:   6    -0.663882768787E+02    0.19142E+02   -0.86477E+00115932   0.181E+01    0.777E+00
DAV:   7    -0.663195985885E+02    0.68678E-01   -0.17152E-01121266   0.329E+00    0.326E+00
DAV:   8    -0.662859474385E+02    0.33651E-01   -0.58439E-02123600   0.152E+00    0.170E+00
DAV:   9    -0.662801409700E+02    0.58065E-02   -0.32145E-03124338   0.350E-01    0.153E+00
DAV:  10    -0.662727106833E+02    0.74303E-02   -0.61240E-03124968   0.519E-01    0.110E+00
DAV:  11    -0.662681312532E+02    0.45794E-02   -0.48207E-03125562   0.453E-01    0.761E-01
DAV:  12    -0.662662739962E+02    0.18573E-02   -0.16650E-03125028   0.261E-01    0.562E-01
DAV:  13    -0.662654564672E+02    0.81753E-03   -0.57309E-04125826   0.156E-01    0.429E-01
DAV:  14    -0.662643812967E+02    0.10752E-02   -0.29746E-03124422   0.358E-01    0.115E-01
DAV:  15    -0.662642801633E+02    0.10113E-03   -0.39753E-04125940   0.128E-01    0.288E-02
DAV:  16    -0.662642754251E+02    0.47382E-05   -0.74561E-06 71214   0.207E-02
   1 F= -.66264275E+02 E0= -.66264275E+02  d E =-.662643E+02  mag=     0.0000
