       N       E                     dE             d eps       ncg     rms          rms(c)
DAV:   1     0.997825686085E+03    0.99783E+03   -0.41719E+04158272   0.223E+03
DAV:   2     0.302195774767E+02   -0.96761E+03   -0.92910E+03171464   0.642E+02
DAV:   3    -0.835586106451E+02   -0.11378E+03   -0.11128E+03162832   0.216E+02
DAV:   4    -0.872939604893E+02   -0.37353E+01   -0.37223E+01166752   0.405E+01
DAV:   5    -0.873547435184E+02   -0.60783E-01   -0.60766E-01177756   0.512E+00    0.376E+00
DAV:   6    -0.694236881802E+02    0.17931E+02   -0.67403E+00164348   0.163E+01    0.489E+00
DAV:   7    -0.693652890406E+02    0.58399E-01   -0.14444E-01163588   0.254E+00    0.188E+00
DAV:   8    -0.693789507291E+02   -0.13662E-01   -0.24030E-01169592   0.148E+00    0.316E+00
DAV:   9    -0.693398509092E+02    0.39100E-01   -0.22650E-01163296   0.106E+00    0.129E+00
DAV:  10    -0.693371598234E+02    0.26911E-02   -0.17270E-02162512   0.571E-01    0.133E+00
DAV:  11    -0.693342858419E+02    0.28740E-02   -0.13129E-02163220   0.280E-01    0.106E+00
DAV:  12    -0.693293091779E+02    0.49767E-02   -0.31042E-03163828   0.371E-01    0.858E-01
DAV:  13    -0.693248018342E+02    0.45073E-02   -0.36193E-03164084   0.397E-01    0.634E-01
DAV:  14    -0.693228905395E+02    0.19113E-02   -0.12528E-03164232   0.257E-01    0.494E-01
DAV:  15    -0.693217631838E+02    0.11274E-02   -0.75017E-04164168   0.191E-01    0.394E-01
DAV:  16    -0.693214926932E+02    0.27049E-03   -0.84154E-05151048   0.649E-02    0.363E-01
DAV:  17    -0.693214025392E+02    0.90154E-04   -0.11821E-05 85464   0.261E-02    0.352E-01
DAV:  18    -0.693211879341E+02    0.21461E-03   -0.58149E-05149060   0.555E-02    0.320E-01
DAV:  19    -0.693205313031E+02    0.65663E-03   -0.99134E-04163988   0.222E-01    0.187E-01
DAV:  20    -0.693204176136E+02    0.11369E-03   -0.93073E-05164336   0.625E-02    0.165E-01
DAV:  21    -0.693203839830E+02    0.33631E-04   -0.12571E-05 85480   0.249E-02    0.151E-01
DAV:  22    -0.693203976056E+02   -0.13623E-04   -0.69323E-06 80044   0.205E-02    0.157E-01
DAV:  23    -0.693203944769E+02    0.31287E-05   -0.14590E-05 79356   0.212E-02
   1 F= -.69320394E+02 E0= -.69316832E+02  d E =-.693204E+02  mag=     0.0000
       N       E                     dE             d eps       ncg     rms          rms(c)
DAV:   1    -0.700287197957E+02   -0.70832E+00   -0.13578E+01163440   0.382E+01    0.722E+00
DAV:   2    -0.693758413991E+02    0.65288E+00   -0.23116E+00159712   0.211E+01    0.761E+00
DAV:   3    -0.695883006329E+02   -0.21246E+00   -0.16637E+00174284   0.762E+00    0.416E+00
DAV:   4    -0.698981987172E+02   -0.30990E+00   -0.35194E-01202008   0.700E+00    0.238E+00
DAV:   5    -0.699503205118E+02   -0.52122E-01   -0.19634E-01166732   0.515E+00    0.171E+00
DAV:   6    -0.700356867356E+02   -0.85366E-01   -0.80743E-02166752   0.342E+00    0.127E+00
DAV:   7    -0.700673064070E+02   -0.31620E-01   -0.41226E-02182152   0.150E+00    0.721E-01
DAV:   8    -0.700865945684E+02   -0.19288E-01   -0.27632E-02185616   0.109E+00    0.507E-01
DAV:   9    -0.700976637862E+02   -0.11069E-01   -0.29127E-02186216   0.122E+00    0.362E-01
DAV:  10    -0.701041945448E+02   -0.65308E-02   -0.28854E-02181740   0.124E+00    0.172E-01
DAV:  11    -0.701053082844E+02   -0.11137E-02   -0.57183E-03183920   0.448E-01    0.152E-01
DAV:  12    -0.701063823677E+02   -0.10741E-02   -0.32010E-03198124   0.348E-01    0.120E-01
DAV:  13    -0.701074963593E+02   -0.11140E-02   -0.35320E-03212996   0.354E-01    0.112E-01
DAV:  14    -0.701078621455E+02   -0.36579E-03   -0.73137E-04182160   0.145E-01    0.112E-01
DAV:  15    -0.701072651737E+02    0.59697E-03   -0.17431E-03170960   0.273E-01    0.113E-01
DAV:  16    -0.701053035756E+02    0.19616E-02   -0.23465E-02193060   0.918E-01    0.114E-01
DAV:  17    -0.701039860899E+02    0.13175E-02   -0.14239E-02205108   0.706E-01    0.100E-01
DAV:  18    -0.701028056050E+02    0.11805E-02   -0.17036E-02198684   0.806E-01    0.943E-02
DAV:  19    -0.701025881308E+02    0.21747E-03   -0.31129E-03188636   0.309E-01    0.770E-02
DAV:  20    -0.701026377356E+02   -0.49605E-04   -0.43709E-03206728   0.368E-01    0.758E-02
DAV:  21    -0.701023163481E+02    0.32139E-03   -0.23033E-03207016   0.335E-01    0.562E-02
DAV:  22    -0.701023622586E+02   -0.45911E-04   -0.65448E-04181304   0.178E-01    0.468E-02
DAV:  23    -0.701026697777E+02   -0.30752E-03   -0.47078E-04146292   0.133E-01    0.442E-02
DAV:  24    -0.701026950218E+02   -0.25244E-04   -0.18640E-03210788   0.301E-01    0.369E-02
DAV:  25    -0.701030555584E+02   -0.36054E-03   -0.48033E-03227784   0.494E-01    0.340E-02
DAV:  26    -0.701030742357E+02   -0.18677E-04   -0.80353E-04198852   0.186E-01    0.285E-02
DAV:  27    -0.701031232117E+02   -0.48976E-04   -0.41213E-04163252   0.127E-01    0.237E-02
DAV:  28    -0.701031330727E+02   -0.98610E-05   -0.64132E-04152640   0.163E-01    0.230E-02
DAV:  29    -0.701032238263E+02   -0.90754E-04   -0.54354E-04162088   0.150E-01    0.209E-02
DAV:  30    -0.701033290743E+02   -0.10525E-03   -0.29066E-04152384   0.115E-01    0.185E-02
DAV:  31    -0.701034795500E+02   -0.15048E-03   -0.37017E-04140488   0.137E-01    0.186E-02
DAV:  32    -0.701034881139E+02   -0.85640E-05   -0.78506E-05140420   0.560E-02
   2 F= -.70103488E+02 E0= -.70103488E+02  d E =-.783094E+00  mag=     0.0000
       N       E                     dE             d eps       ncg     rms          rms(c)
DAV:   1    -0.703729106760E+02   -0.26943E+00   -0.44932E+00164352   0.216E+01    0.400E+00
DAV:   2    -0.701616723671E+02    0.21124E+00   -0.62662E-01158676   0.105E+01    0.381E+00
DAV:   3    -0.701403386702E+02    0.21334E-01   -0.69164E-02162340   0.182E+00    0.145E+00
DAV:   4    -0.701325700309E+02    0.77686E-02   -0.18618E-02160840   0.816E-01    0.548E-01
DAV:   5    -0.701322379024E+02    0.33213E-03   -0.19046E-03165632   0.474E-01    0.311E-01
DAV:   6    -0.701311607771E+02    0.10771E-02   -0.83503E-04165676   0.313E-01    0.104E-01
DAV:   7    -0.701313144953E+02   -0.15372E-03   -0.10563E-04162292   0.132E-01    0.657E-02
DAV:   8    -0.701312816591E+02    0.32836E-04   -0.88243E-05149356   0.653E-02    0.285E-02
DAV:   9    -0.701313243948E+02   -0.42736E-04   -0.13244E-04 90316   0.844E-02    0.222E-02
DAV:  10    -0.701313551602E+02   -0.30765E-04   -0.26730E-05101232   0.369E-02    0.192E-02
DAV:  11    -0.701313380174E+02    0.17143E-04   -0.51530E-05 87904   0.611E-02    0.206E-02
DAV:  12    -0.701312831076E+02    0.54910E-04   -0.55274E-04130236   0.176E-01    0.228E-02
DAV:  13    -0.701312252969E+02    0.57811E-04   -0.10225E-03176776   0.234E-01    0.208E-02
DAV:  14    -0.701311763793E+02    0.48918E-04   -0.46418E-04168976   0.150E-01    0.145E-02
DAV:  15    -0.701311892054E+02   -0.12826E-04   -0.86006E-05150960   0.554E-02    0.126E-02
DAV:  16    -0.701311864638E+02    0.27416E-05   -0.13470E-05 85140   0.223E-02
   3 F= -.70131186E+02 E0= -.70131186E+02  d E =-.810792E+00  mag=     0.0000
       N       E                     dE             d eps       ncg     rms          rms(c)
DAV:   1    -0.701521795829E+02   -0.20990E-01   -0.32418E-01164688   0.587E+00    0.107E+00
DAV:   2    -0.701381912549E+02    0.13988E-01   -0.45163E-02158976   0.286E+00    0.104E+00
DAV:   3    -0.701356218574E+02    0.25694E-02   -0.48207E-03162620   0.507E-01    0.387E-01
DAV:   4    -0.701348278975E+02    0.79396E-03   -0.15932E-03160944   0.230E-01    0.147E-01
DAV:   5    -0.701350903859E+02   -0.26249E-03   -0.15430E-04166112   0.146E-01    0.958E-02
DAV:   6    -0.701348068299E+02    0.28356E-03   -0.98677E-05161460   0.979E-02    0.301E-02
DAV:   7    -0.701348595966E+02   -0.52767E-04   -0.12208E-05 93032   0.454E-02    0.190E-02
DAV:   8    -0.701348477926E+02    0.11804E-04   -0.14903E-05 80104   0.274E-02    0.121E-02
DAV:   9    -0.701348555631E+02   -0.77705E-05   -0.29561E-05 79216   0.366E-02
   4 F= -.70134856E+02 E0= -.70134856E+02  d E =-.814461E+00  mag=     0.0000
       N       E                     dE             d eps       ncg     rms          rms(c)
DAV:   1    -0.701488094518E+02   -0.13962E-01   -0.22636E-01164632   0.491E+00    0.898E-01
DAV:   2    -0.701392044019E+02    0.96050E-02   -0.31520E-02159008   0.239E+00    0.873E-01
DAV:   3    -0.701372129829E+02    0.19914E-02   -0.33658E-03162728   0.423E-01    0.324E-01
DAV:   4    -0.701366216701E+02    0.59131E-03   -0.11332E-03160948   0.195E-01    0.123E-01
DAV:   5    -0.701368613814E+02   -0.23971E-03   -0.12204E-04154944   0.126E-01    0.809E-02
DAV:   6    -0.701366290661E+02    0.23232E-03   -0.10084E-04154088   0.931E-02    0.268E-02
DAV:   7    -0.701366781471E+02   -0.49081E-04   -0.12331E-05 91448   0.416E-02    0.190E-02
DAV:   8    -0.701366744575E+02    0.36896E-05   -0.15478E-05 79504   0.280E-02
   5 F= -.70136674E+02 E0= -.70136674E+02  d E =-.816280E+00  mag=     0.0000
       N       E                     dE             d eps       ncg     rms          rms(c)
DAV:   1    -0.701402252837E+02   -0.35471E-02   -0.56431E-02164784   0.246E+00    0.450E-01
DAV:   2    -0.701381092297E+02    0.21161E-02   -0.78757E-03159072   0.120E+00    0.438E-01
DAV:   3    -0.701373150120E+02    0.79422E-03   -0.84646E-04162944   0.214E-01    0.162E-01
DAV:   4    -0.701371146407E+02    0.20037E-03   -0.31364E-04161000   0.107E-01    0.624E-02
DAV:   5    -0.701372621676E+02   -0.14753E-03   -0.62054E-05125012   0.778E-02    0.433E-02
DAV:   6    -0.701371684308E+02    0.93737E-04   -0.10361E-04 97964   0.794E-02    0.204E-02
DAV:   7    -0.701371986496E+02   -0.30219E-04   -0.14000E-05 97432   0.310E-02    0.187E-02
DAV:   8    -0.701372022901E+02   -0.36405E-05   -0.66380E-06 78188   0.175E-02
   6 F= -.70137202E+02 E0= -.70137202E+02  d E =-.816808E+00  mag=     0.0000
       N       E                     dE             d eps       ncg     rms          rms(c)
DAV:   1    -0.701381204442E+02   -0.92179E-03   -0.14237E-02165144   0.123E+00    0.228E-01
DAV:   2    -0.701377103663E+02    0.41008E-03   -0.20211E-03159104   0.599E-01    0.220E-01
DAV:   3    -0.701373715004E+02    0.33887E-03   -0.23147E-04163024   0.112E-01    0.836E-02
DAV:   4    -0.701373101147E+02    0.61386E-04   -0.11204E-04158692   0.705E-02    0.349E-02
DAV:   5    -0.701374004088E+02   -0.90294E-04   -0.64262E-05 82656   0.628E-02    0.273E-02
DAV:   6    -0.701373786037E+02    0.21805E-04   -0.12180E-04101712   0.783E-02    0.209E-02
DAV:   7    -0.701373978850E+02   -0.19281E-04   -0.15611E-05102092   0.258E-02    0.210E-02
DAV:   8    -0.701373896886E+02    0.81963E-05   -0.77198E-06 77480   0.236E-02
   7 F= -.70137390E+02 E0= -.70137390E+02  d E =-.816995E+00  mag=     0.0000
       N       E                     dE             d eps       ncg     rms          rms(c)
DAV:   1    -0.702553019854E+02   -0.11790E+00   -0.83150E+00155420   0.236E+01    0.364E+00
DAV:   2    -0.701580160672E+02    0.97286E-01   -0.69351E-01160160   0.102E+01    0.390E+00
DAV:   3    -0.701528287207E+02    0.51873E-02   -0.54991E-02169276   0.219E+00    0.128E+00
DAV:   4    -0.701466237777E+02    0.62049E-02   -0.25878E-02161228   0.109E+00    0.538E-01
DAV:   5    -0.701440629011E+02    0.25609E-02   -0.35988E-03172528   0.786E-01    0.375E-01
DAV:   6    -0.701450787256E+02   -0.10158E-02   -0.27051E-03198784   0.432E-01    0.119E-01
DAV:   7    -0.701450427084E+02    0.36017E-04   -0.45285E-04175520   0.208E-01    0.829E-02
DAV:   8    -0.701452954393E+02   -0.25273E-03   -0.58034E-04198792   0.165E-01    0.770E-02
DAV:   9    -0.701456170474E+02   -0.32161E-03   -0.88823E-04159620   0.203E-01    0.764E-02
DAV:  10    -0.701456399590E+02   -0.22912E-04   -0.54673E-05147036   0.486E-02    0.773E-02
DAV:  11    -0.701456387806E+02    0.11784E-05   -0.12317E-06 81340   0.850E-03
   8 F= -.70145639E+02 E0= -.70145639E+02  d E =-.824909E-02  mag=     0.0000
       N       E                     dE             d eps       ncg     rms          rms(c)
DAV:   1    -0.701522783694E+02   -0.66384E-02   -0.35641E-01155020   0.486E+00    0.763E-01
DAV:   2    -0.701481898855E+02    0.40885E-02   -0.29525E-02159744   0.206E+00    0.791E-01
DAV:   3    -0.701471273313E+02    0.10626E-02   -0.25214E-03165960   0.425E-01    0.276E-01
DAV:   4    -0.701468222628E+02    0.30507E-03   -0.16638E-03168740   0.286E-01    0.129E-01
DAV:   5    -0.701473578707E+02   -0.53561E-03   -0.12196E-03211720   0.259E-01    0.964E-02
DAV:   6    -0.701475809434E+02   -0.22307E-03   -0.13588E-03202184   0.249E-01    0.820E-02
DAV:   7    -0.701476979551E+02   -0.11701E-03   -0.16906E-04169400   0.794E-02    0.817E-02
DAV:   8    -0.701473897784E+02    0.30818E-03   -0.80361E-04155984   0.206E-01    0.811E-02
DAV:   9    -0.701462148048E+02    0.11750E-02   -0.20372E-02187024   0.993E-01    0.838E-02
DAV:  10    -0.701454785138E+02    0.73629E-03   -0.15187E-02201824   0.838E-01    0.778E-02
DAV:  11    -0.701452175960E+02    0.26092E-03   -0.29215E-03210272   0.329E-01    0.615E-02
DAV:  12    -0.701452205612E+02   -0.29652E-05   -0.53413E-03215272   0.444E-01    0.582E-02
DAV:  13    -0.701449454197E+02    0.27514E-03   -0.30855E-03200916   0.333E-01    0.435E-02
DAV:  14    -0.701449829954E+02   -0.37576E-04   -0.47020E-04179036   0.139E-01    0.373E-02
DAV:  15    -0.701450506972E+02   -0.67702E-04   -0.19472E-04104532   0.950E-02    0.351E-02
DAV:  16    -0.701450818295E+02   -0.31132E-04   -0.13088E-04113472   0.743E-02    0.349E-02
DAV:  17    -0.701450723863E+02    0.94431E-05   -0.26706E-05109280   0.471E-02
   9 F= -.70145072E+02 E0= -.70145072E+02  d E =-.768270E-02  mag=     0.0000
       N       E                     dE             d eps       ncg     rms          rms(c)
DAV:   1    -0.702238612539E+02   -0.78779E-01   -0.51480E+00155356   0.177E+01    0.259E+00
DAV:   2    -0.701676497548E+02    0.56211E-01   -0.37563E-01159564   0.705E+00    0.279E+00
DAV:   3    -0.701598112800E+02    0.78385E-02   -0.26487E-02170272   0.138E+00    0.995E-01
DAV:   4    -0.701544960778E+02    0.53152E-02   -0.10712E-02161576   0.715E-01    0.437E-01
DAV:   5    -0.701547751721E+02   -0.27909E-03   -0.25774E-03175128   0.477E-01    0.249E-01
DAV:   6    -0.701544171662E+02    0.35801E-03   -0.14784E-03189784   0.296E-01    0.894E-02
DAV:   7    -0.701545813554E+02   -0.16419E-03   -0.34146E-04179604   0.141E-01    0.802E-02
DAV:   8    -0.701548248531E+02   -0.24350E-03   -0.68259E-04158048   0.165E-01    0.784E-02
DAV:   9    -0.701550136955E+02   -0.18884E-03   -0.41695E-04158888   0.125E-01    0.783E-02
DAV:  10    -0.701550896074E+02   -0.75912E-04   -0.82748E-05142100   0.502E-02    0.786E-02
DAV:  11    -0.701549349204E+02    0.15469E-03   -0.32289E-04117640   0.125E-01    0.782E-02
DAV:  12    -0.701541915087E+02    0.74341E-03   -0.90197E-03196488   0.609E-01    0.788E-02
DAV:  13    -0.701536663770E+02    0.52513E-03   -0.51296E-03215916   0.443E-01    0.738E-02
DAV:  14    -0.701533623748E+02    0.30400E-03   -0.33242E-03202668   0.329E-01    0.707E-02
DAV:  15    -0.701532099254E+02    0.15245E-03   -0.17004E-03205408   0.218E-01    0.672E-02
DAV:  16    -0.701531911291E+02    0.18796E-04   -0.30305E-03198448   0.364E-01    0.594E-02
DAV:  17    -0.701535150652E+02   -0.32394E-03   -0.34988E-03222652   0.402E-01    0.534E-02
DAV:  18    -0.701537191155E+02   -0.20405E-03   -0.20061E-03228800   0.293E-01    0.500E-02
DAV:  19    -0.701540518266E+02   -0.33271E-03   -0.35387E-03208156   0.378E-01    0.479E-02
DAV:  20    -0.701541467128E+02   -0.94886E-04   -0.13345E-03212912   0.233E-01    0.476E-02
DAV:  21    -0.701541576746E+02   -0.10962E-04   -0.91704E-05155380   0.681E-02    0.479E-02
DAV:  22    -0.701541561256E+02    0.15490E-05   -0.67581E-07 78504   0.673E-03
  10 F= -.70154156E+02 E0= -.70154156E+02  d E =-.908374E-02  mag=     0.0000
       N       E                     dE             d eps       ncg     rms          rms(c)
DAV:   1    -0.701542162897E+02   -0.58615E-04   -0.33578E-03155976   0.456E-01    0.869E-02
DAV:   2    -0.701540522351E+02    0.16405E-03   -0.49453E-04158716   0.230E-01    0.882E-02
DAV:   3    -0.701542265900E+02   -0.17435E-03   -0.12142E-04126252   0.763E-02    0.529E-02
DAV:   4    -0.701543571554E+02   -0.13057E-03   -0.33056E-04 95904   0.122E-01    0.495E-02
DAV:   5    -0.701544346514E+02   -0.77496E-04   -0.30950E-04145920   0.115E-01    0.506E-02
DAV:   6    -0.701543435534E+02    0.91098E-04   -0.19276E-04132792   0.112E-01    0.507E-02
DAV:   7    -0.701541901044E+02    0.15345E-03   -0.69709E-04122420   0.186E-01    0.500E-02
DAV:   8    -0.701539695985E+02    0.22051E-03   -0.22146E-03200120   0.325E-01    0.454E-02
DAV:   9    -0.701536239070E+02    0.34569E-03   -0.16192E-02188748   0.872E-01    0.450E-02
DAV:  10    -0.701535568423E+02    0.67065E-04   -0.13426E-03193328   0.225E-01    0.408E-02
DAV:  11    -0.701535651708E+02   -0.83285E-05   -0.80696E-05151908   0.552E-02
  11 F= -.70153565E+02 E0= -.70153565E+02  d E =-.849278E-02  mag=     0.0000
       N       E                     dE             d eps       ncg     rms          rms(c)
DAV:   1    -0.701556805774E+02   -0.21237E-02   -0.50859E-01153540   0.498E+00    0.562E-01
DAV:   2    -0.701558877750E+02   -0.20720E-03   -0.23517E-02164348   0.151E+00    0.547E-01
DAV:   3    -0.701553182283E+02    0.56955E-03   -0.11316E-03175000   0.350E-01    0.243E-01
DAV:   4    -0.701548967012E+02    0.42153E-03   -0.43582E-04167016   0.216E-01    0.113E-01
DAV:   5    -0.701550170699E+02   -0.12037E-03   -0.22737E-04171408   0.166E-01    0.452E-02
DAV:   6    -0.701549506344E+02    0.66435E-04   -0.74251E-05141756   0.652E-02    0.268E-02
DAV:   7    -0.701549742450E+02   -0.23611E-04   -0.31024E-05 90300   0.412E-02    0.225E-02
DAV:   8    -0.701549875408E+02   -0.13296E-04   -0.87001E-05 81360   0.620E-02    0.213E-02
DAV:   9    -0.701550124576E+02   -0.24917E-04   -0.84520E-05 92888   0.600E-02    0.206E-02
DAV:  10    -0.701550279169E+02   -0.15459E-04   -0.57993E-05 94020   0.465E-02    0.208E-02
DAV:  11    -0.701550230301E+02    0.48868E-05   -0.15580E-05 93560   0.370E-02
  12 F= -.70155023E+02 E0= -.70155023E+02  d E =-.145786E-02  mag=     0.0000
       N       E                     dE             d eps       ncg     rms          rms(c)
DAV:   1    -0.701554369003E+02   -0.40898E-03   -0.17047E-01153676   0.289E+00    0.325E-01
DAV:   2    -0.701556452649E+02   -0.20836E-03   -0.79191E-03164284   0.874E-01    0.317E-01
DAV:   3    -0.701553552662E+02    0.29000E-03   -0.37955E-04174944   0.203E-01    0.141E-01
DAV:   4    -0.701551787846E+02    0.17648E-03   -0.17103E-04168472   0.133E-01    0.667E-02
DAV:   5    -0.701552692622E+02   -0.90478E-04   -0.10604E-04147668   0.106E-01    0.286E-02
DAV:   6    -0.701552286621E+02    0.40600E-04   -0.45225E-05 99068   0.496E-02    0.195E-02
DAV:   7    -0.701552479968E+02   -0.19335E-04   -0.24225E-05 84680   0.335E-02    0.182E-02
DAV:   8    -0.701552560686E+02   -0.80718E-05   -0.35496E-05 79860   0.382E-02
  13 F= -.70155256E+02 E0= -.70155256E+02  d E =-.169090E-02  mag=     0.0000
       N       E                     dE             d eps       ncg     rms          rms(c)
DAV:   1    -0.701571162493E+02   -0.18683E-02   -0.22048E-01155084   0.379E+00    0.444E-01
DAV:   2    -0.701557485900E+02    0.13677E-02   -0.13953E-02157584   0.131E+00    0.486E-01
DAV:   3    -0.701560471416E+02   -0.29855E-03   -0.98229E-04178728   0.290E-01    0.172E-01
DAV:   4    -0.701560451869E+02    0.19547E-05   -0.44786E-04162696   0.151E-01    0.646E-02
DAV:   5    -0.701558869065E+02    0.15828E-03   -0.11034E-04140636   0.104E-01    0.411E-02
DAV:   6    -0.701560057407E+02   -0.11883E-03   -0.10064E-04122972   0.790E-02    0.223E-02
DAV:   7    -0.701560027236E+02    0.30170E-05   -0.22343E-05 97164   0.344E-02
  14 F= -.70156003E+02 E0= -.70156003E+02  d E =-.746655E-03  mag=     0.0000
       N       E                     dE             d eps       ncg     rms          rms(c)
DAV:   1    -0.701561202785E+02   -0.11454E-03   -0.81495E-03156200   0.728E-01    0.878E-02
DAV:   2    -0.701560191187E+02    0.10116E-03   -0.55304E-04158716   0.255E-01    0.952E-02
DAV:   3    -0.701561124452E+02   -0.93327E-04   -0.53751E-05147596   0.624E-02    0.391E-02
DAV:   4    -0.701561649695E+02   -0.52524E-04   -0.94976E-05 83432   0.698E-02    0.245E-02
DAV:   5    -0.701561734300E+02   -0.84605E-05   -0.10026E-04 91640   0.694E-02    0.231E-02
DAV:   6    -0.701562068716E+02   -0.33442E-04   -0.57484E-05103908   0.482E-02    0.233E-02
DAV:   7    -0.701562067118E+02    0.15979E-06   -0.62527E-06 91652   0.205E-02
  15 F= -.70156207E+02 E0= -.70156207E+02  d E =-.950643E-03  mag=     0.0000
       N       E                     dE             d eps       ncg     rms          rms(c)
DAV:   1    -0.701564597593E+02   -0.25289E-03   -0.32708E-02155412   0.146E+00    0.172E-01
DAV:   2    -0.701561885782E+02    0.27118E-03   -0.20997E-03157912   0.502E-01    0.187E-01
DAV:   3    -0.701563507108E+02   -0.16213E-03   -0.16824E-04179052   0.116E-01    0.710E-02
DAV:   4    -0.701564227251E+02   -0.72014E-04   -0.16884E-04160764   0.950E-02    0.345E-02
DAV:   5    -0.701564117427E+02    0.10982E-04   -0.13508E-04 93148   0.885E-02    0.291E-02
DAV:   6    -0.701564926849E+02   -0.80942E-04   -0.13419E-04114652   0.800E-02    0.278E-02
DAV:   7    -0.701564998301E+02   -0.71453E-05   -0.16594E-05118628   0.252E-02
  16 F= -.70156500E+02 E0= -.70156500E+02  d E =-.124376E-02  mag=    -0.0000
       N       E                     dE             d eps       ncg     rms          rms(c)
DAV:   1    -0.701566347601E+02   -0.14208E-03   -0.12689E-01152812   0.278E+00    0.240E-01
DAV:   2    -0.701569914990E+02   -0.35674E-03   -0.67915E-03160320   0.764E-01    0.252E-01
DAV:   3    -0.701567759261E+02    0.21557E-03   -0.37090E-04178812   0.169E-01    0.109E-01
DAV:   4    -0.701566995062E+02    0.76420E-04   -0.27885E-04180952   0.136E-01    0.497E-02
DAV:   5    -0.701567949222E+02   -0.95416E-04   -0.23261E-04119388   0.119E-01    0.382E-02
DAV:   6    -0.701568281811E+02   -0.33259E-04   -0.13030E-04132720   0.777E-02    0.348E-02
DAV:   7    -0.701568629802E+02   -0.34799E-04   -0.69324E-05104444   0.532E-02    0.348E-02
DAV:   8    -0.701568242763E+02    0.38704E-04   -0.65405E-05 96072   0.714E-02    0.345E-02
DAV:   9    -0.701567263175E+02    0.97959E-04   -0.48591E-04113304   0.163E-01    0.344E-02
DAV:  10    -0.701565471744E+02    0.17914E-03   -0.22737E-03203112   0.350E-01    0.312E-02
DAV:  11    -0.701563034990E+02    0.24368E-03   -0.72124E-03200060   0.619E-01    0.299E-02
DAV:  12    -0.701562244979E+02    0.79001E-04   -0.22325E-03227228   0.319E-01    0.277E-02
DAV:  13    -0.701562115265E+02    0.12971E-04   -0.39476E-04203852   0.114E-01    0.286E-02
DAV:  14    -0.701561937519E+02    0.17775E-04   -0.33214E-05132424   0.480E-02    0.264E-02
DAV:  15    -0.701561698622E+02    0.23890E-04   -0.13372E-04 87220   0.867E-02    0.191E-02
DAV:  16    -0.701561814490E+02   -0.11587E-04   -0.12887E-04 99948   0.794E-02    0.224E-02
DAV:  17    -0.701561846072E+02   -0.31582E-05   -0.32627E-05 91960   0.398E-02
  17 F= -.70156185E+02 E0= -.70156185E+02  d E =0.315223E-03  mag=    -0.0000
