       N       E                     dE             d eps       ncg     rms          rms(c)
DAV:   1     0.418812939823E+04    0.41881E+04   -0.19109E+05 97232   0.187E+03
DAV:   2     0.898345421428E+02   -0.40983E+04   -0.38085E+04 99720   0.546E+02
DAV:   3    -0.418150596391E+03   -0.50799E+03   -0.47718E+03 93176   0.206E+02
DAV:   4    -0.435681867721E+03   -0.17531E+02   -0.17417E+02 94016   0.396E+01
DAV:   5    -0.435915474986E+03   -0.23361E+00   -0.23329E+00 98504   0.462E+00    0.951E+00
DAV:   6    -0.342505366445E+03    0.93410E+02   -0.34746E+01 93712   0.164E+01    0.120E+01
DAV:   7    -0.342263385169E+03    0.24198E+00   -0.57613E-01 94040   0.307E+00    0.578E+00
DAV:   8    -0.342129538886E+03    0.13385E+00   -0.23890E-01 93952   0.173E+00    0.264E+00
DAV:   9    -0.342111681088E+03    0.17858E-01   -0.14233E-02 94664   0.443E-01    0.272E+00
DAV:  10    -0.342086467143E+03    0.25214E-01   -0.18578E-02 93952   0.415E-01    0.210E+00
DAV:  11    -0.342066138865E+03    0.20328E-01   -0.15814E-02 94016   0.353E-01    0.162E+00
DAV:  12    -0.342050954278E+03    0.15185E-01   -0.19136E-02 93904   0.392E-01    0.103E+00
DAV:  13    -0.342049001684E+03    0.19526E-02   -0.80505E-04 97632   0.845E-02    0.922E-01
DAV:  14    -0.342047617002E+03    0.13847E-02   -0.32596E-04 93896   0.536E-02    0.837E-01
DAV:  15    -0.342044293857E+03    0.33231E-02   -0.36932E-03 94000   0.179E-01    0.546E-01
DAV:  16    -0.342042093336E+03    0.22005E-02   -0.63152E-03 93784   0.230E-01    0.167E-01
DAV:  17    -0.342041857537E+03    0.23580E-03   -0.76743E-04 94016   0.795E-02    0.495E-02
DAV:  18    -0.342041851406E+03    0.61314E-05   -0.10597E-05 50600   0.105E-02
   1 F= -.34204185E+03 E0= -.34204185E+03  d E =-.342042E+03  mag=     0.0000
