       N       E                     dE             d eps       ncg     rms          rms(c)
DAV:   1     0.836019850829E+03    0.83602E+03   -0.37794E+04139088   0.178E+03
DAV:   2    -0.248316493705E+02   -0.86085E+03   -0.81767E+03160912   0.528E+02
DAV:   3    -0.105950170908E+03   -0.81119E+02   -0.80542E+02148944   0.180E+02
DAV:   4    -0.107601158990E+03   -0.16510E+01   -0.16463E+01164584   0.266E+01
DAV:   5    -0.107649410868E+03   -0.48252E-01   -0.48245E-01186552   0.429E+00    0.342E+01
DAV:   6    -0.821343677827E+02    0.25515E+02   -0.47533E+01187544   0.590E+01    0.229E+01
DAV:   7    -0.827467760119E+02   -0.61241E+00   -0.48222E+00153080   0.135E+01    0.159E+01
DAV:   8    -0.830753837542E+02   -0.32861E+00   -0.34780E-01171592   0.560E+00    0.942E+00
DAV:   9    -0.831182154540E+02   -0.42832E-01   -0.12653E-01155768   0.280E+00    0.256E+00
DAV:  10    -0.831009147032E+02    0.17301E-01   -0.21290E-02172912   0.127E+00    0.642E-01
DAV:  11    -0.831120086432E+02   -0.11094E-01   -0.22841E-03193688   0.354E-01    0.429E-01
DAV:  12    -0.831081306557E+02    0.38780E-02   -0.11556E-03194160   0.205E-01    0.218E-01
DAV:  13    -0.831094301316E+02   -0.12995E-02   -0.14195E-04188288   0.745E-02    0.826E-02
DAV:  14    -0.831101547351E+02   -0.72460E-03   -0.93575E-06107656   0.260E-02    0.547E-02
DAV:  15    -0.831096242868E+02    0.53045E-03   -0.56597E-06 91832   0.217E-02    0.240E-02
DAV:  16    -0.831098749955E+02   -0.25071E-03   -0.45669E-06 74272   0.169E-02    0.112E-02
DAV:  17    -0.831098020071E+02    0.72988E-04   -0.11143E-06 69864   0.769E-03    0.567E-03
DAV:  18    -0.831097436430E+02    0.58364E-04   -0.46819E-07 70112   0.441E-03    0.312E-03
DAV:  19    -0.831097516771E+02   -0.80340E-05   -0.21726E-07 69728   0.288E-03
   1 F= -.83109752E+02 E0= -.83109752E+02  d E =-.831098E+02  mag=    -0.0000
       N       E                     dE             d eps       ncg     rms          rms(c)
DAV:   1    -0.832119864165E+02   -0.10224E+00   -0.45158E+00138880   0.172E+01    0.302E+00
DAV:   2    -0.831231418410E+02    0.88845E-01   -0.31496E-01138880   0.366E+00    0.151E+00
DAV:   3    -0.831119983531E+02    0.11143E-01   -0.44263E-02145144   0.178E+00    0.594E-01
DAV:   4    -0.831125286987E+02   -0.53035E-03   -0.20763E-03154584   0.303E-01    0.347E-01
DAV:   5    -0.831114400307E+02    0.10887E-02   -0.19857E-04180224   0.117E-01    0.206E-01
DAV:   6    -0.831122517743E+02   -0.81174E-03   -0.13007E-04193760   0.708E-02    0.103E-01
DAV:   7    -0.831121667958E+02    0.84979E-04   -0.46420E-05157816   0.394E-02    0.450E-02
DAV:   8    -0.831119809360E+02    0.18586E-03   -0.74094E-06100432   0.216E-02    0.188E-02
DAV:   9    -0.831121258134E+02   -0.14488E-03   -0.16264E-06 78752   0.113E-02    0.129E-02
DAV:  10    -0.831120933734E+02    0.32440E-04   -0.40215E-07 69672   0.505E-03    0.874E-03
DAV:  11    -0.831120707644E+02    0.22609E-04   -0.46929E-07 69976   0.494E-03    0.308E-03
DAV:  12    -0.831120750676E+02   -0.43032E-05   -0.10977E-07 69624   0.242E-03
   2 F= -.83112075E+02 E0= -.83112075E+02  d E =-.232339E-02  mag=    -0.0000
       N       E                     dE             d eps       ncg     rms          rms(c)
DAV:   1    -0.831316458713E+02   -0.19575E-01   -0.73380E-01138880   0.693E+00    0.122E+00
DAV:   2    -0.831166499092E+02    0.14996E-01   -0.50920E-02138880   0.146E+00    0.601E-01
DAV:   3    -0.831148361967E+02    0.18137E-02   -0.73209E-03144376   0.726E-01    0.233E-01
DAV:   4    -0.831140535065E+02    0.78269E-03   -0.33928E-04155200   0.124E-01    0.127E-01
DAV:   5    -0.831143586618E+02   -0.30516E-03   -0.33794E-05130248   0.508E-02    0.696E-02
DAV:   6    -0.831139066243E+02    0.45204E-03   -0.10972E-05107544   0.282E-02    0.280E-02
DAV:   7    -0.831140220414E+02   -0.11542E-03   -0.37568E-06 70016   0.170E-02    0.145E-02
DAV:   8    -0.831140216765E+02    0.36487E-06   -0.74533E-07 69704   0.699E-03
   3 F= -.83114022E+02 E0= -.83114022E+02  d E =-.427000E-02  mag=     0.0000
       N       E                     dE             d eps       ncg     rms          rms(c)
DAV:   1    -0.831149088378E+02   -0.88680E-03   -0.38470E-01138880   0.416E+00    0.426E-01
DAV:   2    -0.831155471800E+02   -0.63834E-03   -0.11833E-02138880   0.730E-01    0.258E-01
DAV:   3    -0.831152780653E+02    0.26911E-03   -0.44311E-04166744   0.166E-01    0.142E-01
DAV:   4    -0.831151716619E+02    0.10640E-03   -0.54343E-05143896   0.423E-02    0.114E-01
DAV:   5    -0.831151897379E+02   -0.18076E-04   -0.85779E-06 70448   0.258E-02    0.918E-02
DAV:   6    -0.831150606805E+02    0.12906E-03   -0.15506E-05110928   0.328E-02    0.236E-02
DAV:   7    -0.831151093362E+02   -0.48656E-04   -0.55370E-06 69728   0.174E-02    0.117E-02
DAV:   8    -0.831151154766E+02   -0.61404E-05   -0.14353E-06 69496   0.880E-03
   4 F= -.83115115E+02 E0= -.83115115E+02  d E =-.109380E-02  mag=     0.0000
       N       E                     dE             d eps       ncg     rms          rms(c)
DAV:   1    -0.831180941167E+02   -0.29848E-02   -0.34625E+00138880   0.125E+01    0.125E+00
DAV:   2    -0.831200172976E+02   -0.19232E-02   -0.10612E-01138880   0.218E+00    0.749E-01
DAV:   3    -0.831182639968E+02    0.17533E-02   -0.40169E-03166896   0.512E-01    0.417E-01
DAV:   4    -0.831178877351E+02    0.37626E-03   -0.50342E-04196840   0.130E-01    0.335E-01
DAV:   5    -0.831179480219E+02   -0.60287E-04   -0.63945E-05166000   0.710E-02    0.269E-01
DAV:   6    -0.831175647095E+02    0.38331E-03   -0.12823E-04183992   0.903E-02    0.826E-02
DAV:   7    -0.831176620115E+02   -0.97302E-04   -0.36964E-05153088   0.392E-02    0.332E-02
DAV:   8    -0.831176737216E+02   -0.11710E-04   -0.56117E-06 69680   0.169E-02    0.200E-02
DAV:   9    -0.831176290084E+02    0.44713E-04   -0.19248E-06 69520   0.946E-03    0.868E-03
DAV:  10    -0.831176470439E+02   -0.18036E-04   -0.71162E-07 69480   0.703E-03    0.386E-03
DAV:  11    -0.831176513264E+02   -0.42825E-05   -0.22232E-07 69456   0.386E-03
   5 F= -.83117651E+02 E0= -.83117651E+02  d E =-.362965E-02  mag=    -0.0000
       N       E                     dE             d eps       ncg     rms          rms(c)
DAV:   1    -0.831306246256E+02   -0.12978E-01   -0.13874E+01138880   0.249E+01    0.246E+00
DAV:   2    -0.831272041011E+02    0.34205E-02   -0.42796E-01138880   0.438E+00    0.146E+00
DAV:   3    -0.831208716839E+02    0.63324E-02   -0.16179E-02167072   0.107E+00    0.803E-01
DAV:   4    -0.831200594368E+02    0.81225E-03   -0.20223E-03208240   0.269E-01    0.651E-01
DAV:   5    -0.831202337171E+02   -0.17428E-03   -0.24970E-04190400   0.134E-01    0.519E-01
DAV:   6    -0.831193208692E+02    0.91285E-03   -0.47006E-04194800   0.172E-01    0.173E-01
DAV:   7    -0.831195538415E+02   -0.23297E-03   -0.18077E-04203040   0.883E-02    0.691E-02
DAV:   8    -0.831195615884E+02   -0.77469E-05   -0.22030E-05118728   0.301E-02
   6 F= -.83119562E+02 E0= -.83119562E+02  d E =-.553991E-02  mag=    -0.0000
