       N       E                     dE             d eps       ncg     rms          rms(c)
DAV:   1     0.882376918877E+03    0.88238E+03   -0.44947E+04 88600   0.169E+03
DAV:   2    -0.339269850001E+02   -0.91630E+03   -0.85276E+03 99256   0.494E+02
DAV:   3    -0.115613006045E+03   -0.81686E+02   -0.77913E+02 94488   0.164E+02
DAV:   4    -0.117450813334E+03   -0.18378E+01   -0.18322E+01 94808   0.270E+01
DAV:   5    -0.117498913655E+03   -0.48100E-01   -0.48096E-01 98424   0.415E+00    0.636E+00
DAV:   6    -0.934364991852E+02    0.24062E+02   -0.96063E+00 88768   0.173E+01    0.436E+00
DAV:   7    -0.933216913441E+02    0.11481E+00   -0.32343E-01124464   0.503E+00    0.291E+00
DAV:   8    -0.933013580903E+02    0.20333E-01   -0.32354E-02 89152   0.156E+00    0.194E+00
DAV:   9    -0.932918545340E+02    0.95036E-02   -0.99766E-03 94208   0.544E-01    0.155E+00
DAV:  10    -0.932886751723E+02    0.31794E-02   -0.18354E-03 88656   0.263E-01    0.126E+00
DAV:  11    -0.932847451001E+02    0.39301E-02   -0.42602E-03 90560   0.352E-01    0.894E-01
DAV:  12    -0.932837156477E+02    0.10295E-02   -0.60195E-04 92360   0.140E-01    0.747E-01
DAV:  13    -0.932822372057E+02    0.14784E-02   -0.28828E-03 88712   0.293E-01    0.428E-01
DAV:  14    -0.932818826444E+02    0.35456E-03   -0.21817E-03 91416   0.257E-01    0.144E-01
DAV:  15    -0.932819499630E+02   -0.67319E-04   -0.25364E-04 91944   0.876E-02    0.490E-02
DAV:  16    -0.932820048979E+02   -0.54935E-04   -0.28499E-05 58192   0.297E-02    0.131E-02
DAV:  17    -0.932820080303E+02   -0.31324E-05   -0.20283E-06 43392   0.104E-02
   1 F= -.93282008E+02 E0= -.93282008E+02  d E =-.932820E+02  mag=    -0.0000
