       N       E                     dE             d eps       ncg     rms          rms(c)
DAV:   1     0.764640980314E+03    0.76464E+03   -0.38408E+04139912   0.178E+03
DAV:   2    -0.226229606881E+02   -0.78726E+03   -0.73334E+03159632   0.516E+02
DAV:   3    -0.903925149557E+02   -0.67770E+02   -0.66529E+02154320   0.164E+02
DAV:   4    -0.919285802664E+02   -0.15361E+01   -0.15220E+01172104   0.248E+01
DAV:   5    -0.919747698567E+02   -0.46190E-01   -0.46036E-01176192   0.382E+00    0.510E+00
DAV:   6    -0.723659319636E+02    0.19609E+02   -0.93949E+00143736   0.188E+01    0.617E+00
DAV:   7    -0.722936885715E+02    0.72243E-01   -0.19886E-01161152   0.354E+00    0.243E+00
DAV:   8    -0.722638728481E+02    0.29816E-01   -0.49255E-02147272   0.130E+00    0.174E+00
DAV:   9    -0.722555013242E+02    0.83715E-02   -0.62678E-03157736   0.510E-01    0.126E+00
DAV:  10    -0.722506947876E+02    0.48065E-02   -0.32184E-03147224   0.348E-01    0.994E-01
DAV:  11    -0.722466834815E+02    0.40113E-02   -0.40353E-03148336   0.390E-01    0.690E-01
DAV:  12    -0.722453214498E+02    0.13620E-02   -0.95945E-04147288   0.189E-01    0.544E-01
DAV:  13    -0.722435634846E+02    0.17580E-02   -0.39972E-03139584   0.390E-01    0.240E-01
DAV:  14    -0.722433155517E+02    0.24793E-03   -0.53877E-04154872   0.143E-01    0.129E-01
DAV:  15    -0.722432357143E+02    0.79837E-04   -0.25255E-04139600   0.965E-02    0.522E-02
DAV:  16    -0.722432374963E+02   -0.17819E-05   -0.83858E-05153968   0.565E-02
   1 F= -.72243237E+02 E0= -.72243237E+02  d E =-.722432E+02  mag=    -0.0000
