       N       E                     dE             d eps       ncg     rms          rms(c)
DAV:   1     0.767065717892E+03    0.76707E+03   -0.32202E+04106696   0.159E+03
DAV:   2     0.106028391969E+02   -0.75646E+03   -0.69589E+03118736   0.475E+02
DAV:   3    -0.854521494070E+02   -0.96055E+02   -0.92943E+02126320   0.172E+02
DAV:   4    -0.880817465699E+02   -0.26296E+01   -0.26230E+01125232   0.316E+01
DAV:   5    -0.881469237741E+02   -0.65177E-01   -0.65168E-01124352   0.519E+00    0.374E+00
DAV:   6    -0.696992705715E+02    0.18448E+02   -0.81466E+00121600   0.165E+01    0.306E+00
DAV:   7    -0.696061902336E+02    0.93080E-01   -0.31022E-01147888   0.416E+00    0.178E+00
DAV:   8    -0.695803292668E+02    0.25861E-01   -0.47465E-02118120   0.121E+00    0.116E+00
DAV:   9    -0.695758893387E+02    0.44399E-02   -0.36470E-03125256   0.362E-01    0.911E-01
DAV:  10    -0.695716425884E+02    0.42468E-02   -0.29817E-03122112   0.291E-01    0.719E-01
DAV:  11    -0.695681844046E+02    0.34582E-02   -0.37045E-03123416   0.329E-01    0.484E-01
DAV:  12    -0.695666887670E+02    0.14956E-02   -0.15205E-03125632   0.208E-01    0.340E-01
DAV:  13    -0.695656512813E+02    0.10375E-02   -0.17834E-03123280   0.225E-01    0.183E-01
DAV:  14    -0.695653290366E+02    0.32224E-03   -0.93528E-04125504   0.164E-01    0.661E-02
DAV:  15    -0.695652930368E+02    0.36000E-04   -0.18807E-04124672   0.729E-02    0.154E-02
DAV:  16    -0.695652931737E+02   -0.13687E-06   -0.90600E-06 64360   0.179E-02
   1 F= -.69565293E+02 E0= -.69565293E+02  d E =-.695653E+02  mag=    -0.0000
