       N       E                     dE             d eps       ncg     rms          rms(c)
DAV:   1     0.712602240130E+03    0.71260E+03   -0.39792E+04136287   0.199E+03
DAV:   2    -0.250551833127E+02   -0.73766E+03   -0.72041E+03122328   0.595E+02
DAV:   3    -0.757715329810E+02   -0.50716E+02   -0.50039E+02141678   0.173E+02
DAV:   4    -0.766510845358E+02   -0.87955E+00   -0.87864E+00123165   0.255E+01
DAV:   5    -0.766683578502E+02   -0.17273E-01   -0.17270E-01138978   0.366E+00    0.205E+01
DAV:   6    -0.602510875503E+02    0.16417E+02   -0.54424E+01129519   0.768E+01    0.296E+01
DAV:   7    -0.603445860346E+02   -0.93498E-01   -0.29743E+00127368   0.253E+01    0.172E+01
DAV:   8    -0.603304449511E+02    0.14141E-01   -0.88319E-01119754   0.151E+01    0.911E+00
DAV:   9    -0.603695790720E+02   -0.39134E-01   -0.17036E-01152397   0.512E+00    0.137E+00
DAV:  10    -0.603669533157E+02    0.26258E-02   -0.41280E-02154179   0.271E+00    0.584E-01
DAV:  11    -0.603726123651E+02   -0.56590E-02   -0.72612E-03135252   0.856E-01    0.211E-01
DAV:  12    -0.603729196797E+02   -0.30731E-03   -0.15031E-03152631   0.376E-01    0.873E-02
DAV:  13    -0.603722110450E+02    0.70863E-03   -0.38950E-04155520   0.267E-01    0.401E-02
DAV:  14    -0.603724696676E+02   -0.25862E-03   -0.58269E-05109953   0.722E-02    0.104E-02
DAV:  15    -0.603722200840E+02    0.24958E-03   -0.54008E-06 63612   0.236E-02    0.670E-03
DAV:  16    -0.603722611785E+02   -0.41095E-04   -0.18649E-06 60678   0.160E-02    0.325E-03
DAV:  17    -0.603722532942E+02    0.78843E-05   -0.12741E-06 59859   0.722E-03
   1 F= -.60372253E+02 E0= -.60372253E+02  d E =-.603723E+02  mag=    -0.0000
       N       E                     dE             d eps       ncg     rms          rms(c)
DAV:   1    -0.613535496725E+02   -0.98129E+00   -0.21559E+01116361   0.535E+01    0.931E+00
DAV:   2    -0.604546643189E+02    0.89889E+00   -0.41148E+00122400   0.250E+01    0.611E+00
DAV:   3    -0.604180577788E+02    0.36607E-01   -0.11275E-01118872   0.278E+00    0.268E+00
DAV:   4    -0.604030904441E+02    0.14967E-01   -0.86101E-03136233   0.726E-01    0.128E+00
DAV:   5    -0.603925041915E+02    0.10586E-01   -0.29312E-03157293   0.673E-01    0.298E-01
DAV:   6    -0.603908084459E+02    0.16957E-02   -0.64934E-04135513   0.312E-01    0.785E-02
DAV:   7    -0.603910124846E+02   -0.20404E-03   -0.52390E-05125325   0.684E-02    0.446E-02
DAV:   8    -0.603909619300E+02    0.50555E-04   -0.11777E-05 79596   0.377E-02    0.136E-02
DAV:   9    -0.603908966440E+02    0.65286E-04   -0.37856E-06 61236   0.196E-02    0.553E-03
DAV:  10    -0.603909229029E+02   -0.26259E-04   -0.14498E-06 59724   0.111E-02    0.222E-03
DAV:  11    -0.603909074479E+02    0.15455E-04   -0.22749E-07 59436   0.486E-03    0.132E-03
DAV:  12    -0.603909131455E+02   -0.56977E-05   -0.91072E-08 59013   0.300E-03
   2 F= -.60390913E+02 E0= -.60390913E+02  d E =-.186599E-01  mag=     0.0000
       N       E                     dE             d eps       ncg     rms          rms(c)
DAV:   1    -0.604225535981E+02   -0.31646E-01   -0.71314E-01116469   0.982E+00    0.175E+00
DAV:   2    -0.603916336851E+02    0.30920E-01   -0.12477E-01119664   0.479E+00    0.119E+00
DAV:   3    -0.603922364444E+02   -0.60276E-03   -0.42530E-03118908   0.495E-01    0.513E-01
DAV:   4    -0.603916436712E+02    0.59277E-03   -0.30551E-04137169   0.133E-01    0.273E-01
DAV:   5    -0.603916521699E+02   -0.84988E-05   -0.90525E-05135081   0.112E-01    0.581E-02
DAV:   6    -0.603919574363E+02   -0.30527E-03   -0.18922E-05110772   0.472E-02    0.137E-02
DAV:   7    -0.603918956851E+02    0.61751E-04   -0.22977E-06 60687   0.163E-02    0.691E-03
DAV:   8    -0.603919250841E+02   -0.29399E-04   -0.81654E-07 59454   0.917E-03    0.297E-03
DAV:   9    -0.603919205796E+02    0.45045E-05   -0.21109E-07 58644   0.532E-03
   3 F= -.60391921E+02 E0= -.60391921E+02  d E =-.196673E-01  mag=     0.0000
       N       E                     dE             d eps       ncg     rms          rms(c)
DAV:   1    -0.603922683583E+02   -0.34327E-03   -0.77776E-03116568   0.102E+00    0.182E-01
DAV:   2    -0.603917321667E+02    0.53619E-03   -0.13738E-03120105   0.494E-01    0.123E-01
DAV:   3    -0.603918701664E+02   -0.13800E-03   -0.45007E-05105444   0.516E-02    0.531E-02
DAV:   4    -0.603918551322E+02    0.15034E-04   -0.33127E-06 58662   0.154E-02    0.269E-02
DAV:   5    -0.603918869809E+02   -0.31849E-04   -0.12635E-06 58680   0.132E-02    0.712E-03
DAV:   6    -0.603919147058E+02   -0.27725E-04   -0.56604E-07 58140   0.922E-03    0.190E-03
DAV:   7    -0.603919140980E+02    0.60775E-06   -0.11086E-07 58104   0.371E-03
   4 F= -.60391914E+02 E0= -.60391914E+02  d E =-.196608E-01  mag=     0.0000
       N       E                     dE             d eps       ncg     rms          rms(c)
DAV:   1    -0.603922347881E+02   -0.32008E-03   -0.10338E-01115776   0.246E+00    0.180E-01
DAV:   2    -0.603921883981E+02    0.46390E-04   -0.31195E-03130158   0.516E-01    0.108E-01
DAV:   3    -0.603922414450E+02   -0.53047E-04   -0.18079E-04139167   0.110E-01    0.590E-02
DAV:   4    -0.603922239262E+02    0.17519E-04   -0.28478E-05 97731   0.409E-02    0.230E-02
DAV:   5    -0.603922065591E+02    0.17367E-04   -0.40289E-06 61092   0.218E-02    0.879E-03
DAV:   6    -0.603922358557E+02   -0.29297E-04   -0.16905E-06 59571   0.123E-02    0.505E-03
DAV:   7    -0.603922276816E+02    0.81741E-05   -0.43701E-07 58995   0.682E-03
   5 F= -.60392228E+02 E0= -.60392228E+02  d E =-.313584E-03  mag=     0.0000
