       N       E                     dE             d eps       ncg     rms          rms(c)
DAV:   1     0.196491077217E+04    0.19649E+04   -0.93064E+04 92496   0.176E+03
DAV:   2    -0.384669903671E+01   -0.19688E+04   -0.18292E+04 97064   0.511E+02
DAV:   3    -0.234620770844E+03   -0.23077E+03   -0.22765E+03 97288   0.189E+02
DAV:   4    -0.240153953904E+03   -0.55332E+01   -0.54603E+01102424   0.306E+01
DAV:   5    -0.240316152805E+03   -0.16220E+00   -0.16145E+00125624   0.483E+00    0.720E+01
DAV:   6    -0.162706259129E+03    0.77610E+02   -0.14513E+02121432   0.837E+01    0.376E+01
DAV:   7    -0.163253087767E+03   -0.54683E+00   -0.28706E+01120928   0.518E+01    0.290E+01
DAV:   8    -0.162580056633E+03    0.67303E+00   -0.55343E+00114824   0.116E+01    0.138E+01
DAV:   9    -0.162736220796E+03   -0.15616E+00   -0.30664E+00118336   0.127E+01    0.336E+01
DAV:  10    -0.162802571880E+03   -0.66351E-01   -0.75602E-01103208   0.383E+00    0.115E+01
DAV:  11    -0.162537469135E+03    0.26510E+00   -0.42666E-01127536   0.496E+00    0.233E+00
DAV:  12    -0.162540637585E+03   -0.31685E-02   -0.14540E-01 99096   0.184E+00    0.136E+00
DAV:  13    -0.162541962401E+03   -0.13248E-02   -0.98136E-03107576   0.586E-01    0.807E-01
DAV:  14    -0.162542339185E+03   -0.37678E-03   -0.25473E-03110792   0.330E-01    0.650E-01
DAV:  15    -0.162542320626E+03    0.18559E-04   -0.77519E-04105672   0.161E-01    0.592E-01
DAV:  16    -0.162542303187E+03    0.17439E-04   -0.18029E-04114960   0.819E-02    0.557E-01
DAV:  17    -0.162542306562E+03   -0.33746E-05   -0.30077E-05 77424   0.349E-02
   1 F= -.16254231E+03 E0= -.16254231E+03  d E =-.162542E+03  mag=     0.0024
       N       E                     dE             d eps       ncg     rms          rms(c)
DAV:   1    -0.165970621561E+03   -0.34283E+01   -0.28054E+02 91000   0.103E+02    0.147E+03
DAV:   2    -0.159226420551E+03    0.67442E+01   -0.76476E+01 99680   0.436E+01    0.171E+03
DAV:   3    -0.162175926171E+03   -0.29495E+01   -0.98816E+00113688   0.222E+01    0.557E+02
DAV:   4    -0.162358560619E+03   -0.18263E+00   -0.21088E+00113736   0.843E+00    0.358E+02
DAV:   5    -0.162337357041E+03    0.21204E-01   -0.53988E-01117000   0.546E+00    0.281E+02
DAV:   6    -0.162128182738E+03    0.20917E+00   -0.38175E-01123936   0.456E+00    0.131E+02
DAV:   7    -0.162002755762E+03    0.12543E+00   -0.94594E-02115072   0.175E+00    0.168E+01
DAV:   8    -0.162000816675E+03    0.19391E-02   -0.16731E-02110016   0.581E-01    0.390E+00
DAV:   9    -0.162000602164E+03    0.21451E-03   -0.29796E-03108784   0.333E-01    0.873E-01
DAV:  10    -0.162000832699E+03   -0.23054E-03   -0.87477E-04118648   0.232E-01    0.784E-01
DAV:  11    -0.162000835710E+03   -0.30103E-05   -0.22239E-04114928   0.114E-01    0.463E-01
DAV:  12    -0.162000827069E+03    0.86407E-05   -0.47153E-05 93112   0.568E-02
   2 F= -.16200083E+03 E0= -.16200083E+03  d E =0.541479E+00  mag=     0.0006
       N       E                     dE             d eps       ncg     rms          rms(c)
DAV:   1    -0.164065554897E+03   -0.20647E+01   -0.13885E+02 95768   0.725E+01    0.149E+01
DAV:   2    -0.162908339303E+03    0.11572E+01   -0.92584E+00 90624   0.148E+01    0.746E+00
DAV:   3    -0.162681955814E+03    0.22638E+00   -0.10559E+00 93456   0.616E+00    0.333E+00
DAV:   4    -0.162673822447E+03    0.81334E-02   -0.16095E-01116624   0.270E+00    0.183E+00
DAV:   5    -0.162669539519E+03    0.42829E-02   -0.21683E-02115632   0.105E+00    0.723E-01
DAV:   6    -0.162667466387E+03    0.20731E-02   -0.13994E-02 97624   0.674E-01    0.365E-01
DAV:   7    -0.162667443553E+03    0.22834E-04   -0.90966E-04104032   0.182E-01    0.152E-01
DAV:   8    -0.162667479819E+03   -0.36265E-04   -0.18480E-04115264   0.772E-02    0.101E-01
DAV:   9    -0.162667480092E+03   -0.27294E-06   -0.28087E-05 76160   0.391E-02
   3 F= -.16266748E+03 E0= -.16266748E+03  d E =-.125174E+00  mag=     0.0000
       N       E                     dE             d eps       ncg     rms          rms(c)
DAV:   1    -0.162805202776E+03   -0.13772E+00   -0.17492E+01103968   0.320E+01    0.490E+00
DAV:   2    -0.162737858647E+03    0.67344E-01   -0.16980E+00 92936   0.659E+00    0.279E+00
DAV:   3    -0.162706050194E+03    0.31808E-01   -0.11471E-01 99656   0.164E+00    0.135E+00
DAV:   4    -0.162696414780E+03    0.96354E-02   -0.24078E-02101608   0.987E-01    0.776E-01
DAV:   5    -0.162695383991E+03    0.10308E-02   -0.53382E-03108600   0.482E-01    0.647E-01
DAV:   6    -0.162695194018E+03    0.18997E-03   -0.88871E-04108320   0.226E-01    0.593E-01
DAV:   7    -0.162695182099E+03    0.11919E-04   -0.15550E-04104864   0.741E-02    0.550E-01
DAV:   8    -0.162695143777E+03    0.38322E-04   -0.20942E-04106856   0.103E-01    0.266E-01
DAV:   9    -0.162695125025E+03    0.18752E-04   -0.35309E-04108640   0.129E-01    0.324E-01
DAV:  10    -0.162695135466E+03   -0.10441E-04   -0.10579E-04111872   0.660E-02    0.138E-01
DAV:  11    -0.162695126417E+03    0.90492E-05   -0.79485E-05102544   0.695E-02
   4 F= -.16269513E+03 E0= -.16269513E+03  d E =-.276463E-01  mag=     0.0000
       N       E                     dE             d eps       ncg     rms          rms(c)
DAV:   1    -0.162704311572E+03   -0.91761E-02   -0.10566E+00104056   0.782E+00    0.108E+00
DAV:   2    -0.162700880801E+03    0.34308E-02   -0.10373E-01 91680   0.161E+00    0.559E-01
DAV:   3    -0.162698536819E+03    0.23440E-02   -0.89393E-03 99968   0.455E-01    0.312E-01
DAV:   4    -0.162698277803E+03    0.25902E-03   -0.10111E-03100960   0.219E-01    0.159E-01
DAV:   5    -0.162698212040E+03    0.65763E-04   -0.30579E-04107424   0.113E-01    0.114E-01
DAV:   6    -0.162698187702E+03    0.24338E-04   -0.54824E-05 98448   0.521E-02    0.884E-02
DAV:   7    -0.162698186855E+03    0.84798E-06   -0.17545E-05 60912   0.300E-02
   5 F= -.16269819E+03 E0= -.16269819E+03  d E =-.307068E-01  mag=     0.0000
       N       E                     dE             d eps       ncg     rms          rms(c)
DAV:   1    -0.162735214561E+03   -0.37027E-01   -0.27308E+00 90632   0.788E+00    0.163E+00
DAV:   2    -0.162710793572E+03    0.24421E-01   -0.10554E-01 91936   0.176E+00    0.866E-01
DAV:   3    -0.162707388186E+03    0.34054E-02   -0.15115E-02104032   0.572E-01    0.485E-01
DAV:   4    -0.162706316869E+03    0.10713E-02   -0.32002E-03101424   0.407E-01    0.221E-01
DAV:   5    -0.162706101077E+03    0.21579E-03   -0.42678E-04 98288   0.125E-01    0.151E-01
DAV:   6    -0.162706023907E+03    0.77170E-04   -0.14535E-04114848   0.573E-02    0.940E-02
DAV:   7    -0.162706011846E+03    0.12061E-04   -0.35579E-05 84224   0.401E-02    0.796E-02
DAV:   8    -0.162706006531E+03    0.53148E-05   -0.72002E-06 51696   0.166E-02
   6 F= -.16270601E+03 E0= -.16270601E+03  d E =-.781968E-02  mag=     0.0000
       N       E                     dE             d eps       ncg     rms          rms(c)
DAV:   1    -0.162719786941E+03   -0.13775E-01   -0.11741E+00 90656   0.517E+00    0.107E+00
DAV:   2    -0.162709256179E+03    0.10531E-01   -0.45380E-02 91920   0.115E+00    0.572E-01
DAV:   3    -0.162707826053E+03    0.14301E-02   -0.64983E-03104168   0.374E-01    0.320E-01
DAV:   4    -0.162707354930E+03    0.47112E-03   -0.13730E-03100552   0.266E-01    0.150E-01
DAV:   5    -0.162707249924E+03    0.10501E-03   -0.18252E-04 98752   0.826E-02    0.120E-01
DAV:   6    -0.162707223664E+03    0.26261E-04   -0.32065E-05 78120   0.280E-02    0.110E-01
DAV:   7    -0.162707217815E+03    0.58487E-05   -0.11568E-05 55896   0.252E-02
   7 F= -.16270722E+03 E0= -.16270722E+03  d E =-.903096E-02  mag=    -0.0000
       N       E                     dE             d eps       ncg     rms          rms(c)
DAV:   1    -0.162712192167E+03   -0.49685E-02   -0.13359E+00 90632   0.503E+00    0.576E-01
DAV:   2    -0.162711712777E+03    0.47939E-03   -0.40006E-02 90688   0.103E+00    0.472E-01
DAV:   3    -0.162711361922E+03    0.35085E-03   -0.18015E-03103248   0.263E-01    0.221E-01
DAV:   4    -0.162711104241E+03    0.25768E-03   -0.65235E-04 98640   0.159E-01    0.156E-01
DAV:   5    -0.162711039685E+03    0.64556E-04   -0.10680E-04109656   0.539E-02    0.120E-01
DAV:   6    -0.162711036749E+03    0.29361E-05   -0.89641E-06 56896   0.181E-02
   8 F= -.16271104E+03 E0= -.16271104E+03  d E =-.381893E-02  mag=    -0.0000
       N       E                     dE             d eps       ncg     rms          rms(c)
DAV:   1    -0.162715947579E+03   -0.49079E-02   -0.28840E+00 90624   0.738E+00    0.841E-01
DAV:   2    -0.162714535443E+03    0.14121E-02   -0.85487E-02 90640   0.148E+00    0.666E-01
DAV:   3    -0.162713777736E+03    0.75771E-03   -0.38426E-03103784   0.374E-01    0.298E-01
DAV:   4    -0.162713263304E+03    0.51443E-03   -0.13588E-03 99072   0.238E-01    0.209E-01
DAV:   5    -0.162713151609E+03    0.11170E-03   -0.24155E-04108344   0.825E-02    0.143E-01
DAV:   6    -0.162713144226E+03    0.73832E-05   -0.19933E-05 64944   0.255E-02
   9 F= -.16271314E+03 E0= -.16271314E+03  d E =-.592641E-02  mag=    -0.0000
       N       E                     dE             d eps       ncg     rms          rms(c)
DAV:   1    -0.162719158427E+03   -0.60068E-02   -0.18362E+00 98272   0.878E+00    0.853E-01
DAV:   2    -0.162719558656E+03   -0.40023E-03   -0.10229E-01 90624   0.154E+00    0.433E-01
DAV:   3    -0.162718684831E+03    0.87383E-03   -0.49166E-03 95544   0.323E-01    0.213E-01
DAV:   4    -0.162718548570E+03    0.13626E-03   -0.42978E-04110040   0.121E-01    0.148E-01
DAV:   5    -0.162718525459E+03    0.23112E-04   -0.75631E-05100792   0.507E-02    0.133E-01
DAV:   6    -0.162718522770E+03    0.26888E-05   -0.83109E-06 57256   0.229E-02
  10 F= -.16271852E+03 E0= -.16271852E+03  d E =-.537854E-02  mag=     0.0000
       N       E                     dE             d eps       ncg     rms          rms(c)
DAV:   1    -0.162743700147E+03   -0.25175E-01   -0.16496E+01 98336   0.263E+01    0.261E+00
DAV:   2    -0.162733873531E+03    0.98266E-02   -0.92073E-01 90624   0.465E+00    0.128E+00
DAV:   3    -0.162725570792E+03    0.83027E-02   -0.43796E-02 96320   0.968E-01    0.624E-01
DAV:   4    -0.162724412219E+03    0.11586E-02   -0.38919E-03108928   0.372E-01    0.373E-01
DAV:   5    -0.162724274440E+03    0.13778E-03   -0.90763E-04101952   0.176E-01    0.219E-01
DAV:   6    -0.162724283624E+03   -0.91839E-05   -0.16649E-04110760   0.940E-02    0.246E-01
DAV:   7    -0.162724280040E+03    0.35842E-05   -0.19776E-05 67760   0.281E-02
  11 F= -.16272428E+03 E0= -.16272428E+03  d E =-.111358E-01  mag=     0.0000
       N       E                     dE             d eps       ncg     rms          rms(c)
DAV:   1    -0.162724340729E+03   -0.57104E-04   -0.25034E-01 98664   0.324E+00    0.377E-01
DAV:   2    -0.162724588602E+03   -0.24787E-03   -0.14007E-02 90648   0.582E-01    0.181E-01
DAV:   3    -0.162724422225E+03    0.16638E-03   -0.73366E-04101288   0.131E-01    0.930E-02
DAV:   4    -0.162724406225E+03    0.15999E-04   -0.91775E-05 93520   0.685E-02    0.102E-01
DAV:   5    -0.162724406733E+03   -0.50792E-06   -0.68383E-06 53864   0.157E-02    0.103E-01
DAV:   6    -0.162724407013E+03   -0.28011E-06   -0.10020E-06 48296   0.572E-03
  12 F= -.16272441E+03 E0= -.16272441E+03  d E =-.112628E-01  mag=     0.0000
       N       E                     dE             d eps       ncg     rms          rms(c)
DAV:   1    -0.162745581528E+03   -0.21175E-01   -0.98380E-01 92960   0.495E+00    0.125E+00
DAV:   2    -0.162728548746E+03    0.17033E-01   -0.59533E-02 92960   0.133E+00    0.666E-01
DAV:   3    -0.162727056695E+03    0.14921E-02   -0.84725E-03100808   0.428E-01    0.309E-01
DAV:   4    -0.162726639357E+03    0.41734E-03   -0.20502E-03100952   0.320E-01    0.142E-01
DAV:   5    -0.162726582226E+03    0.57131E-04   -0.11151E-04 99936   0.646E-02    0.102E-01
DAV:   6    -0.162726544682E+03    0.37544E-04   -0.19300E-05 66240   0.268E-02    0.721E-02
DAV:   7    -0.162726529422E+03    0.15260E-04   -0.11812E-05 58352   0.213E-02    0.395E-02
DAV:   8    -0.162726520711E+03    0.87110E-05   -0.58229E-06 53664   0.182E-02
  13 F= -.16272652E+03 E0= -.16272652E+03  d E =-.211370E-02  mag=    -0.0000
       N       E                     dE             d eps       ncg     rms          rms(c)
DAV:   1    -0.162810708596E+03   -0.84179E-01   -0.41303E+00 92944   0.102E+01    0.257E+00
DAV:   2    -0.162736838183E+03    0.73870E-01   -0.25068E-01 92944   0.271E+00    0.135E+00
DAV:   3    -0.162730039032E+03    0.67992E-02   -0.35972E-02100040   0.867E-01    0.642E-01
DAV:   4    -0.162728336227E+03    0.17028E-02   -0.81723E-03100936   0.647E-01    0.290E-01
DAV:   5    -0.162728132316E+03    0.20391E-03   -0.48859E-04 99224   0.138E-01    0.202E-01
DAV:   6    -0.162728052283E+03    0.80034E-04   -0.73683E-05109832   0.448E-02    0.185E-01
DAV:   7    -0.162728050778E+03    0.15048E-05   -0.12582E-05 60160   0.253E-02
  14 F= -.16272805E+03 E0= -.16272805E+03  d E =-.364376E-02  mag=     0.0000
       N       E                     dE             d eps       ncg     rms          rms(c)
DAV:   1    -0.162738881218E+03   -0.10829E-01   -0.57433E-01 92928   0.378E+00    0.980E-01
DAV:   2    -0.162729150901E+03    0.97303E-02   -0.34972E-02 92928   0.102E+00    0.544E-01
DAV:   3    -0.162728077530E+03    0.10734E-02   -0.48896E-03102904   0.331E-01    0.293E-01
DAV:   4    -0.162727849489E+03    0.22804E-03   -0.12039E-03101648   0.244E-01    0.180E-01
DAV:   5    -0.162727853141E+03   -0.36527E-05   -0.83252E-05 97432   0.633E-02    0.873E-02
DAV:   6    -0.162727861541E+03   -0.84000E-05   -0.87947E-06 56664   0.193E-02
  15 F= -.16272786E+03 E0= -.16272786E+03  d E =-.345453E-02  mag=    -0.0000
       N       E                     dE             d eps       ncg     rms          rms(c)
DAV:   1    -0.162728801281E+03   -0.94814E-03   -0.45676E-02 92064   0.107E+00    0.297E-01
DAV:   2    -0.162728017634E+03    0.78365E-03   -0.28622E-03 92064   0.303E-01    0.182E-01
DAV:   3    -0.162727986892E+03    0.30742E-04   -0.39928E-04107840   0.996E-02    0.103E-01
DAV:   4    -0.162727970288E+03    0.16605E-04   -0.11773E-04 94536   0.750E-02    0.486E-02
DAV:   5    -0.162727964142E+03    0.61455E-05   -0.79712E-06 54792   0.222E-02    0.641E-02
DAV:   6    -0.162727965062E+03   -0.91975E-06   -0.14260E-06 47008   0.863E-03
  16 F= -.16272797E+03 E0= -.16272797E+03  d E =-.355805E-02  mag=    -0.0000
       N       E                     dE             d eps       ncg     rms          rms(c)
DAV:   1    -0.162730975234E+03   -0.30111E-02   -0.91164E-01 90624   0.430E+00    0.519E-01
DAV:   2    -0.162730275312E+03    0.69992E-03   -0.28653E-02 90624   0.894E-01    0.398E-01
DAV:   3    -0.162729965483E+03    0.30983E-03   -0.16161E-03109104   0.246E-01    0.169E-01
DAV:   4    -0.162729728984E+03    0.23650E-03   -0.54953E-04 97608   0.148E-01    0.110E-01
DAV:   5    -0.162729675991E+03    0.52993E-04   -0.81234E-05103424   0.454E-02    0.745E-02
DAV:   6    -0.162729660746E+03    0.15246E-04   -0.76276E-06 54120   0.191E-02    0.613E-02
DAV:   7    -0.162729659717E+03    0.10288E-05   -0.29250E-06 51400   0.103E-02
  17 F= -.16272966E+03 E0= -.16272966E+03  d E =-.169465E-02  mag=    -0.0000
       N       E                     dE             d eps       ncg     rms          rms(c)
DAV:   1    -0.162734456967E+03   -0.47962E-02   -0.25119E+00 90624   0.714E+00    0.865E-01
DAV:   2    -0.162731983871E+03    0.24731E-02   -0.79177E-02 90624   0.149E+00    0.663E-01
DAV:   3    -0.162731104141E+03    0.87973E-03   -0.44725E-03109472   0.408E-01    0.288E-01
DAV:   4    -0.162730501986E+03    0.60216E-03   -0.14886E-03 97848   0.246E-01    0.190E-01
DAV:   5    -0.162730384917E+03    0.11707E-03   -0.23275E-04107928   0.780E-02    0.122E-01
DAV:   6    -0.162730363524E+03    0.21393E-04   -0.19818E-05 63424   0.294E-02    0.121E-01
DAV:   7    -0.162730365917E+03   -0.23935E-05   -0.58675E-06 49664   0.138E-02
  18 F= -.16273037E+03 E0= -.16273037E+03  d E =-.240086E-02  mag=    -0.0000
       N       E                     dE             d eps       ncg     rms          rms(c)
DAV:   1    -0.162731019602E+03   -0.65608E-03   -0.63779E-02 90624   0.128E+00    0.172E-01
DAV:   2    -0.162730858191E+03    0.16141E-03   -0.23890E-03 90624   0.261E-01    0.108E-01
DAV:   3    -0.162730825257E+03    0.32934E-04   -0.17918E-04103416   0.677E-02    0.616E-02
DAV:   4    -0.162730799397E+03    0.25860E-04   -0.35308E-05 76560   0.436E-02    0.606E-02
DAV:   5    -0.162730795098E+03    0.42984E-05   -0.47503E-06 50872   0.136E-02    0.568E-02
DAV:   6    -0.162730791587E+03    0.35111E-05   -0.16682E-06 49688   0.832E-03
  19 F= -.16273079E+03 E0= -.16273079E+03  d E =-.425670E-03  mag=    -0.0000
       N       E                     dE             d eps       ncg     rms          rms(c)
DAV:   1    -0.162733672715E+03   -0.28776E-02   -0.57211E-01 90624   0.383E+00    0.502E-01
DAV:   2    -0.162732515254E+03    0.11575E-02   -0.21374E-02 90624   0.786E-01    0.307E-01
DAV:   3    -0.162732212836E+03    0.30242E-03   -0.14684E-03104120   0.202E-01    0.158E-01
DAV:   4    -0.162732053500E+03    0.15934E-03   -0.36963E-04 97408   0.135E-01    0.909E-02
DAV:   5    -0.162732013426E+03    0.40074E-04   -0.61240E-05 98808   0.489E-02    0.653E-02
DAV:   6    -0.162732007580E+03    0.58468E-05   -0.67100E-06 53864   0.161E-02
  20 F= -.16273201E+03 E0= -.16273201E+03  d E =-.164166E-02  mag=    -0.0000
       N       E                     dE             d eps       ncg     rms          rms(c)
DAV:   1    -0.162741021435E+03   -0.90080E-02   -0.22904E+00 90624   0.766E+00    0.100E+00
DAV:   2    -0.162735910629E+03    0.51108E-02   -0.85607E-02 90624   0.157E+00    0.598E-01
DAV:   3    -0.162734556830E+03    0.13538E-02   -0.59787E-03103440   0.403E-01    0.299E-01
DAV:   4    -0.162733956376E+03    0.60045E-03   -0.14419E-03 97448   0.268E-01    0.168E-01
DAV:   5    -0.162733837296E+03    0.11908E-03   -0.23875E-04103184   0.958E-02    0.109E-01
DAV:   6    -0.162733810069E+03    0.27227E-04   -0.47067E-05 94624   0.363E-02    0.880E-02
DAV:   7    -0.162733802944E+03    0.71249E-05   -0.10799E-05 53728   0.227E-02
  21 F= -.16273380E+03 E0= -.16273380E+03  d E =-.343703E-02  mag=    -0.0000
       N       E                     dE             d eps       ncg     rms          rms(c)
DAV:   1    -0.162767044846E+03   -0.33235E-01   -0.91553E+00 90624   0.153E+01    0.201E+00
DAV:   2    -0.162743199484E+03    0.23845E-01   -0.34336E-01 90624   0.314E+00    0.117E+00
DAV:   3    -0.162737650226E+03    0.55493E-02   -0.23473E-02103152   0.785E-01    0.588E-01
DAV:   4    -0.162735446497E+03    0.22037E-02   -0.52615E-03 97256   0.517E-01    0.324E-01
DAV:   5    -0.162735038892E+03    0.40761E-03   -0.94571E-04102872   0.192E-01    0.190E-01
DAV:   6    -0.162734968687E+03    0.70205E-04   -0.22556E-04114864   0.801E-02    0.131E-01
DAV:   7    -0.162734954445E+03    0.14242E-04   -0.51854E-05 93976   0.462E-02    0.108E-01
DAV:   8    -0.162734949911E+03    0.45341E-05   -0.93848E-06 53376   0.185E-02
  22 F= -.16273495E+03 E0= -.16273495E+03  d E =-.458399E-02  mag=    -0.0000
       N       E                     dE             d eps       ncg     rms          rms(c)
DAV:   1    -0.162736457639E+03   -0.15032E-02   -0.16282E-01120240   0.367E+00    0.392E-01
DAV:   2    -0.162737025402E+03   -0.56776E-03   -0.18285E-02 90624   0.617E-01    0.262E-01
DAV:   3    -0.162736947379E+03    0.78023E-04   -0.91855E-04100248   0.197E-01    0.148E-01
DAV:   4    -0.162736945264E+03    0.21144E-05   -0.24641E-04102384   0.724E-02    0.875E-02
DAV:   5    -0.162736941629E+03    0.36355E-05   -0.16213E-05 62400   0.289E-02    0.551E-02
DAV:   6    -0.162736944240E+03   -0.26112E-05   -0.73823E-06 52424   0.191E-02
  23 F= -.16273694E+03 E0= -.16273694E+03  d E =-.199433E-02  mag=    -0.0000
       N       E                     dE             d eps       ncg     rms          rms(c)
DAV:   1    -0.162737505970E+03   -0.56434E-03   -0.13177E-01120048   0.330E+00    0.362E-01
DAV:   2    -0.162737976293E+03   -0.47032E-03   -0.14741E-02 90624   0.553E-01    0.245E-01
DAV:   3    -0.162737917760E+03    0.58533E-04   -0.73819E-04101624   0.175E-01    0.136E-01
DAV:   4    -0.162737921551E+03   -0.37906E-05   -0.21297E-04102400   0.671E-02    0.637E-02
DAV:   5    -0.162737919804E+03    0.17466E-05   -0.14299E-05 59928   0.279E-02    0.673E-02
DAV:   6    -0.162737920787E+03   -0.98305E-06   -0.32643E-06 50560   0.122E-02
  24 F= -.16273792E+03 E0= -.16273792E+03  d E =-.297088E-02  mag=    -0.0000
       N       E                     dE             d eps       ncg     rms          rms(c)
DAV:   1    -0.162736030686E+03    0.18891E-02   -0.52796E-01119968   0.660E+00    0.714E-01
DAV:   2    -0.162737930877E+03   -0.19002E-02   -0.58917E-02 90624   0.112E+00    0.468E-01
DAV:   3    -0.162737569472E+03    0.36141E-03   -0.30053E-03 99736   0.357E-01    0.243E-01
DAV:   4    -0.162737526559E+03    0.42913E-04   -0.85719E-04103056   0.133E-01    0.994E-02
DAV:   5    -0.162737525269E+03    0.12900E-05   -0.58901E-05 95752   0.517E-02    0.592E-02
DAV:   6    -0.162737523616E+03    0.16536E-05   -0.22873E-05 65848   0.314E-02
  25 F= -.16273752E+03 E0= -.16273752E+03  d E =-.257370E-02  mag=     0.0000
       N       E                     dE             d eps       ncg     rms          rms(c)
DAV:   1    -0.162737563192E+03   -0.37923E-04   -0.26297E-01119776   0.466E+00    0.503E-01
DAV:   2    -0.162738547703E+03   -0.98451E-03   -0.29652E-02 90624   0.782E-01    0.333E-01
DAV:   3    -0.162738228819E+03    0.31888E-03   -0.14715E-03 99280   0.248E-01    0.170E-01
DAV:   4    -0.162738126928E+03    0.10189E-03   -0.42369E-04103416   0.934E-02    0.729E-02
DAV:   5    -0.162738130545E+03   -0.36173E-05   -0.26128E-05 77728   0.358E-02    0.590E-02
DAV:   6    -0.162738129347E+03    0.11976E-05   -0.64130E-06 53064   0.168E-02
  26 F= -.16273813E+03 E0= -.16273813E+03  d E =-.317944E-02  mag=     0.0000
       N       E                     dE             d eps       ncg     rms          rms(c)
DAV:   1    -0.162739224187E+03   -0.10936E-02   -0.23573E-01 98176   0.325E+00    0.280E-01
DAV:   2    -0.162739922460E+03   -0.69827E-03   -0.14293E-02 91200   0.585E-01    0.176E-01
DAV:   3    -0.162739843524E+03    0.78937E-04   -0.50400E-04101208   0.120E-01    0.969E-02
DAV:   4    -0.162739805595E+03    0.37929E-04   -0.95075E-05 98336   0.740E-02    0.713E-02
DAV:   5    -0.162739806789E+03   -0.11936E-05   -0.24944E-05 75192   0.362E-02    0.743E-02
DAV:   6    -0.162739806227E+03    0.56171E-06   -0.35292E-06 48576   0.143E-02
  27 F= -.16273981E+03 E0= -.16273981E+03  d E =-.167688E-02  mag=     0.0000
       N       E                     dE             d eps       ncg     rms          rms(c)
DAV:   1    -0.162737778495E+03    0.20283E-02   -0.21214E+00 98176   0.974E+00    0.808E-01
DAV:   2    -0.162743751082E+03   -0.59726E-02   -0.12872E-01 91200   0.175E+00    0.475E-01
DAV:   3    -0.162742861457E+03    0.88962E-03   -0.45309E-03 99488   0.358E-01    0.247E-01
DAV:   4    -0.162742531022E+03    0.33044E-03   -0.78258E-04101808   0.210E-01    0.181E-01
DAV:   5    -0.162742505223E+03    0.25800E-04   -0.28191E-04113080   0.111E-01    0.135E-01
DAV:   6    -0.162742503816E+03    0.14066E-05   -0.38402E-05 85160   0.431E-02
  28 F= -.16274250E+03 E0= -.16274250E+03  d E =-.437447E-02  mag=     0.0000
       N       E                     dE             d eps       ncg     rms          rms(c)
DAV:   1    -0.162742077630E+03    0.42759E-03   -0.26303E-01 98176   0.343E+00    0.294E-01
DAV:   2    -0.162742752045E+03   -0.67442E-03   -0.15858E-02 91288   0.614E-01    0.180E-01
DAV:   3    -0.162742641522E+03    0.11052E-03   -0.58115E-04 99408   0.127E-01    0.104E-01
DAV:   4    -0.162742601889E+03    0.39633E-04   -0.90868E-05 99912   0.717E-02    0.882E-02
DAV:   5    -0.162742603612E+03   -0.17229E-05   -0.31901E-05 76256   0.394E-02    0.654E-02
DAV:   6    -0.162742602365E+03    0.12469E-05   -0.81888E-06 55248   0.224E-02
  29 F= -.16274260E+03 E0= -.16274260E+03  d E =-.447302E-02  mag=     0.0000
       N       E                     dE             d eps       ncg     rms          rms(c)
DAV:   1    -0.162742949585E+03   -0.34597E-03   -0.22917E-01 96256   0.245E+00    0.190E-01
DAV:   2    -0.162743509486E+03   -0.55990E-03   -0.75859E-03 91504   0.411E-01    0.131E-01
DAV:   3    -0.162743460633E+03    0.48853E-04   -0.19759E-04103880   0.881E-02    0.874E-02
DAV:   4    -0.162743429687E+03    0.30946E-04   -0.38362E-05 87720   0.409E-02    0.594E-02
DAV:   5    -0.162743422912E+03    0.67747E-05   -0.12831E-05 56744   0.255E-02    0.339E-02
DAV:   6    -0.162743423733E+03   -0.82005E-06   -0.39667E-06 50400   0.127E-02
  30 F= -.16274342E+03 E0= -.16274342E+03  d E =-.821367E-03  mag=    -0.0000
       N       E                     dE             d eps       ncg     rms          rms(c)
DAV:   1    -0.162742161433E+03    0.12615E-02   -0.82975E-01 96264   0.467E+00    0.353E-01
DAV:   2    -0.162744141176E+03   -0.19797E-02   -0.27421E-02 90792   0.783E-01    0.238E-01
DAV:   3    -0.162743947414E+03    0.19376E-03   -0.75559E-04103952   0.174E-01    0.141E-01
DAV:   4    -0.162743857606E+03    0.89808E-04   -0.17014E-04109920   0.824E-02    0.860E-02
DAV:   5    -0.162743842740E+03    0.14866E-04   -0.46131E-05 89744   0.436E-02    0.800E-02
DAV:   6    -0.162743844511E+03   -0.17709E-05   -0.65319E-06 53840   0.164E-02
  31 F= -.16274384E+03 E0= -.16274384E+03  d E =-.124215E-02  mag=     0.0000
       N       E                     dE             d eps       ncg     rms          rms(c)
DAV:   1    -0.162744060481E+03   -0.21774E-03   -0.81435E-02 98176   0.179E+00    0.152E-01
DAV:   2    -0.162744335069E+03   -0.27459E-03   -0.41722E-03 91208   0.317E-01    0.135E-01
DAV:   3    -0.162744319404E+03    0.15665E-04   -0.11779E-04103560   0.598E-02    0.999E-02
DAV:   4    -0.162744291690E+03    0.27714E-04   -0.26247E-05 71728   0.372E-02    0.542E-02
DAV:   5    -0.162744293341E+03   -0.16504E-05   -0.10214E-05 57200   0.247E-02    0.841E-02
DAV:   6    -0.162744295517E+03   -0.21760E-05   -0.23399E-06 48168   0.110E-02
  32 F= -.16274430E+03 E0= -.16274430E+03  d E =-.451006E-03  mag=     0.0000
       N       E                     dE             d eps       ncg     rms          rms(c)
DAV:   1    -0.162742456949E+03    0.18364E-02   -0.70801E-01 98176   0.528E+00    0.365E-01
DAV:   2    -0.162745119025E+03   -0.26621E-02   -0.36411E-02 91200   0.938E-01    0.244E-01
DAV:   3    -0.162744896256E+03    0.22277E-03   -0.10978E-03103784   0.188E-01    0.141E-01
DAV:   4    -0.162744752992E+03    0.14326E-03   -0.19613E-04102904   0.892E-02    0.828E-02
DAV:   5    -0.162744735893E+03    0.17099E-04   -0.74220E-05102504   0.530E-02    0.569E-02
DAV:   6    -0.162744737317E+03   -0.14243E-05   -0.11760E-05 59176   0.263E-02
  33 F= -.16274474E+03 E0= -.16274474E+03  d E =-.892806E-03  mag=     0.0000
       N       E                     dE             d eps       ncg     rms          rms(c)
DAV:   1    -0.162744724048E+03    0.11845E-04   -0.53197E-03 98376   0.460E-01    0.426E-02
DAV:   2    -0.162744753479E+03   -0.29432E-04   -0.28236E-04 93080   0.823E-02    0.265E-02
DAV:   3    -0.162744745739E+03    0.77399E-05   -0.74195E-06 49440   0.166E-02    0.239E-02
DAV:   4    -0.162744746609E+03   -0.86947E-06   -0.14412E-06 48360   0.751E-03    0.256E-02
DAV:   5    -0.162744746849E+03   -0.23986E-06   -0.28756E-07 48136   0.413E-03    0.198E-02
DAV:   6    -0.162744745399E+03    0.14492E-05   -0.30098E-07 47392   0.427E-03
  34 F= -.16274475E+03 E0= -.16274475E+03  d E =-.900888E-03  mag=     0.0000
       N       E                     dE             d eps       ncg     rms          rms(c)
DAV:   1    -0.162744160394E+03    0.58645E-03   -0.14763E-01 98176   0.241E+00    0.166E-01
DAV:   2    -0.162744757421E+03   -0.59703E-03   -0.76092E-03 91248   0.427E-01    0.110E-01
DAV:   3    -0.162744673517E+03    0.83904E-04   -0.22993E-04103536   0.853E-02    0.626E-02
DAV:   4    -0.162744649963E+03    0.23554E-04   -0.35710E-05 82120   0.386E-02    0.363E-02
DAV:   5    -0.162744649785E+03    0.17844E-06   -0.13658E-05 57264   0.244E-02    0.236E-02
DAV:   6    -0.162744649459E+03    0.32629E-06   -0.44498E-06 49016   0.142E-02
  35 F= -.16274465E+03 E0= -.16274465E+03  d E =-.804948E-03  mag=     0.0000
       N       E                     dE             d eps       ncg     rms          rms(c)
DAV:   1    -0.162744461763E+03    0.18802E-03   -0.79135E-02 98176   0.177E+00    0.122E-01
DAV:   2    -0.162744774550E+03   -0.31279E-03   -0.41029E-03 91408   0.314E-01    0.801E-02
DAV:   3    -0.162744767773E+03    0.67770E-05   -0.12045E-04103464   0.621E-02    0.442E-02
DAV:   4    -0.162744751123E+03    0.16650E-04   -0.17182E-05 61032   0.284E-02    0.282E-02
DAV:   5    -0.162744748563E+03    0.25605E-05   -0.77728E-06 50520   0.188E-02    0.231E-02
DAV:   6    -0.162744749223E+03   -0.66057E-06   -0.22543E-06 47224   0.976E-03
  36 F= -.16274475E+03 E0= -.16274475E+03  d E =-.904712E-03  mag=     0.0000
       N       E                     dE             d eps       ncg     rms          rms(c)
DAV:   1    -0.162744744011E+03    0.45521E-05   -0.18462E-03 98176   0.269E-01    0.215E-02
DAV:   2    -0.162744748540E+03   -0.45291E-05   -0.93143E-05 91176   0.476E-02    0.210E-02
DAV:   3    -0.162744749631E+03   -0.10910E-05   -0.20600E-06 46768   0.794E-03    0.210E-02
DAV:   4    -0.162744748647E+03    0.98361E-06   -0.36839E-07 46176   0.389E-03    0.180E-02
DAV:   5    -0.162744748331E+03    0.31615E-06   -0.43753E-07 45528   0.488E-03    0.974E-03
DAV:   6    -0.162744749211E+03   -0.88019E-06   -0.30607E-07 45728   0.478E-03
  37 F= -.16274475E+03 E0= -.16274475E+03  d E =-.904700E-03  mag=     0.0000
       N       E                     dE             d eps       ncg     rms          rms(c)
DAV:   1    -0.162744906810E+03   -0.15848E-03   -0.19570E-02 98952   0.896E-01    0.631E-02
DAV:   2    -0.162744989524E+03   -0.82714E-04   -0.10249E-03 90792   0.153E-01    0.500E-02
DAV:   3    -0.162744991558E+03   -0.20340E-05   -0.28041E-05 76328   0.364E-02    0.249E-02
DAV:   4    -0.162744992851E+03   -0.12935E-05   -0.11465E-05 49720   0.184E-02    0.174E-02
DAV:   5    -0.162744993409E+03   -0.55811E-06   -0.29358E-06 47104   0.907E-03    0.923E-03
DAV:   6    -0.162744993055E+03    0.35398E-06   -0.59373E-07 45504   0.403E-03
  38 F= -.16274499E+03 E0= -.16274499E+03  d E =-.243844E-03  mag=     0.0000
       N       E                     dE             d eps       ncg     rms          rms(c)
DAV:   1    -0.162744682340E+03    0.31107E-03   -0.15020E-01 98648   0.248E+00    0.174E-01
DAV:   2    -0.162745315081E+03   -0.63274E-03   -0.79053E-03 91104   0.424E-01    0.138E-01
DAV:   3    -0.162745308978E+03    0.61028E-05   -0.22857E-04100688   0.996E-02    0.678E-02
DAV:   4    -0.162745303450E+03    0.55287E-05   -0.64104E-05101232   0.444E-02    0.435E-02
DAV:   5    -0.162745304078E+03   -0.62851E-06   -0.86377E-06 53488   0.178E-02    0.232E-02
DAV:   6    -0.162745303042E+03    0.10364E-05   -0.28084E-06 51408   0.119E-02
  39 F= -.16274530E+03 E0= -.16274530E+03  d E =-.553831E-03  mag=    -0.0000
       N       E                     dE             d eps       ncg     rms          rms(c)
DAV:   1    -0.162745525035E+03   -0.22096E-03   -0.37596E-02 90624   0.963E-01    0.895E-02
DAV:   2    -0.162745541009E+03   -0.15974E-04   -0.12037E-03 91568   0.172E-01    0.546E-02
DAV:   3    -0.162745536453E+03    0.45558E-05   -0.57210E-05 97848   0.424E-02    0.256E-02
DAV:   4    -0.162745531061E+03    0.53926E-05   -0.12880E-05 57952   0.269E-02    0.226E-02
DAV:   5    -0.162745530394E+03    0.66692E-06   -0.37510E-06 50296   0.101E-02    0.163E-02
DAV:   6    -0.162745528987E+03    0.14068E-05   -0.76675E-07 47904   0.461E-03
  40 F= -.16274553E+03 E0= -.16274553E+03  d E =-.225945E-03  mag=    -0.0000
       N       E                     dE             d eps       ncg     rms          rms(c)
DAV:   1    -0.162745838254E+03   -0.30786E-03   -0.33801E-01 90624   0.289E+00    0.269E-01
DAV:   2    -0.162745940585E+03   -0.10233E-03   -0.10861E-02 90864   0.516E-01    0.163E-01
DAV:   3    -0.162745871631E+03    0.68954E-04   -0.51244E-04105456   0.124E-01    0.772E-02
DAV:   4    -0.162745835624E+03    0.36007E-04   -0.12967E-04 98392   0.810E-02    0.551E-02
DAV:   5    -0.162745830208E+03    0.54154E-05   -0.17765E-05 61288   0.256E-02    0.312E-02
DAV:   6    -0.162745826090E+03    0.41179E-05   -0.53301E-06 53696   0.120E-02
  41 F= -.16274583E+03 E0= -.16274583E+03  d E =-.523049E-03  mag=    -0.0000
       N       E                     dE             d eps       ncg     rms          rms(c)
DAV:   1    -0.162746377975E+03   -0.54777E-03   -0.59028E-02 91136   0.142E+00    0.223E-01
DAV:   2    -0.162746068794E+03    0.30918E-03   -0.30344E-03 91176   0.289E-01    0.116E-01
DAV:   3    -0.162746033088E+03    0.35706E-04   -0.30106E-04 99000   0.807E-02    0.595E-02
DAV:   4    -0.162746022558E+03    0.10530E-04   -0.41320E-05 86008   0.450E-02    0.329E-02
DAV:   5    -0.162746017168E+03    0.53902E-05   -0.61689E-06 51984   0.174E-02    0.317E-02
DAV:   6    -0.162746016404E+03    0.76332E-06   -0.13442E-06 47944   0.690E-03
  42 F= -.16274602E+03 E0= -.16274602E+03  d E =-.190314E-03  mag=     0.0000
