       N       E                     dE             d eps       ncg     rms          rms(c)
DAV:   1     0.754785280034E+03    0.75479E+03   -0.33031E+04100782   0.214E+03
DAV:   2     0.132976826230E+02   -0.74149E+03   -0.70114E+03103605   0.614E+02
DAV:   3    -0.786241419267E+02   -0.91922E+02   -0.90167E+02115509   0.216E+02
DAV:   4    -0.816164099835E+02   -0.29923E+01   -0.29415E+01110793   0.380E+01
DAV:   5    -0.816742011451E+02   -0.57791E-01   -0.57363E-01111903   0.564E+00    0.217E+01
DAV:   6    -0.640606747440E+02    0.17614E+02   -0.79322E+01117702   0.670E+01    0.278E+01
DAV:   7    -0.646500456400E+02   -0.58937E+00   -0.41770E+00101565   0.279E+01    0.156E+01
DAV:   8    -0.644702796283E+02    0.17977E+00   -0.82095E-01119079   0.116E+01    0.919E+00
DAV:   9    -0.644830763664E+02   -0.12797E-01   -0.59695E-01101379   0.911E+00    0.127E+00
DAV:  10    -0.644645818990E+02    0.18494E-01   -0.11814E-01111630   0.421E+00    0.481E-01
DAV:  11    -0.644683904996E+02   -0.38086E-02   -0.15214E-02116580   0.106E+00    0.321E-01
DAV:  12    -0.644693954698E+02   -0.10050E-02   -0.15797E-03115887   0.424E-01    0.165E-01
DAV:  13    -0.644706699261E+02   -0.12745E-02   -0.19099E-03121428   0.446E-01    0.999E-02
DAV:  14    -0.644703934132E+02    0.27651E-03   -0.22428E-04101766   0.145E-01    0.623E-02
DAV:  15    -0.644702063897E+02    0.18702E-03   -0.22050E-04114048   0.133E-01    0.196E-02
DAV:  16    -0.644701853956E+02    0.20994E-04   -0.17300E-05 55293   0.477E-02    0.109E-02
DAV:  17    -0.644702477980E+02   -0.62402E-04   -0.78591E-06 49992   0.301E-02    0.787E-03
DAV:  18    -0.644702263772E+02    0.21421E-04   -0.23562E-06 49872   0.164E-02    0.264E-03
DAV:  19    -0.644702129411E+02    0.13436E-04   -0.11177E-06 49806   0.883E-03    0.255E-03
DAV:  20    -0.644702138678E+02   -0.92670E-06   -0.16053E-07 49746   0.371E-03
   1 F= -.64470214E+02 E0= -.64470214E+02  d E =-.644702E+02  mag=     0.0000
       N       E                     dE             d eps       ncg     rms          rms(c)
DAV:   1    -0.644695737608E+02    0.63918E-03   -0.59590E-01 99264   0.520E+00    0.142E-01
DAV:   2    -0.644715937215E+02   -0.20200E-02   -0.16768E-02 99264   0.857E-01    0.951E-02
DAV:   3    -0.644716157215E+02   -0.22000E-04   -0.11994E-04112062   0.899E-02    0.620E-02
DAV:   4    -0.644716058394E+02    0.98821E-05   -0.38181E-05103698   0.588E-02    0.317E-02
DAV:   5    -0.644716291117E+02   -0.23272E-04   -0.25470E-05 77676   0.381E-02    0.683E-03
DAV:   6    -0.644716388778E+02   -0.97661E-05   -0.43315E-06 49764   0.148E-02
   2 F= -.64471639E+02 E0= -.64471639E+02  d E =-.142501E-02  mag=     0.0000
       N       E                     dE             d eps       ncg     rms          rms(c)
DAV:   1    -0.644716745461E+02   -0.45434E-04   -0.80347E-02 99264   0.191E+00    0.539E-02
DAV:   2    -0.644719714861E+02   -0.29694E-03   -0.22670E-03 99264   0.315E-01    0.346E-02
DAV:   3    -0.644719798982E+02   -0.84120E-05   -0.15974E-05 83472   0.335E-02    0.223E-02
DAV:   4    -0.644719867504E+02   -0.68522E-05   -0.55464E-06 51174   0.227E-02    0.115E-02
DAV:   5    -0.644719937264E+02   -0.69761E-05   -0.36376E-06 49632   0.157E-02    0.227E-03
DAV:   6    -0.644719935732E+02    0.15323E-06   -0.74553E-07 49632   0.659E-03
   3 F= -.64471994E+02 E0= -.64471994E+02  d E =-.177971E-02  mag=    -0.0000
       N       E                     dE             d eps       ncg     rms          rms(c)
DAV:   1    -0.644713360287E+02    0.65770E-03   -0.32114E-01 99264   0.382E+00    0.105E-01
DAV:   2    -0.644724270446E+02   -0.10910E-02   -0.90406E-03 99264   0.629E-01    0.701E-02
DAV:   3    -0.644724447917E+02   -0.17747E-04   -0.64423E-05105252   0.662E-02    0.456E-02
DAV:   4    -0.644724415222E+02    0.32695E-05   -0.19483E-05 59286   0.435E-02    0.233E-02
DAV:   5    -0.644724569160E+02   -0.15394E-04   -0.15688E-05 66726   0.307E-02    0.474E-03
DAV:   6    -0.644724603520E+02   -0.34360E-05   -0.24475E-06 49632   0.114E-02
   4 F= -.64472460E+02 E0= -.64472460E+02  d E =-.224648E-02  mag=    -0.0000
