       N       E                     dE             d eps       ncg     rms          rms(c)
DAV:   1     0.650562551247E+03    0.65056E+03   -0.29530E+04 92991   0.170E+03
DAV:   2    -0.196452724497E+02   -0.67021E+03   -0.64101E+03106350   0.512E+02
DAV:   3    -0.790502807406E+02   -0.59405E+02   -0.58733E+02103554   0.166E+02
DAV:   4    -0.802749860006E+02   -0.12247E+01   -0.12199E+01110979   0.249E+01
DAV:   5    -0.803111011985E+02   -0.36115E-01   -0.36108E-01122814   0.399E+00    0.197E+01
DAV:   6    -0.651559701919E+02    0.15155E+02   -0.28601E+01117114   0.422E+01    0.160E+01
DAV:   7    -0.659524908880E+02   -0.79652E+00   -0.39943E+00116304   0.133E+01    0.105E+01
DAV:   8    -0.661778027737E+02   -0.22531E+00   -0.52593E-01106131   0.690E+00    0.577E+00
DAV:   9    -0.662092575113E+02   -0.31455E-01   -0.15403E-01117348   0.343E+00    0.325E+00
DAV:  10    -0.662294899780E+02   -0.20232E-01   -0.24044E-02108717   0.131E+00    0.158E+00
DAV:  11    -0.662372744530E+02   -0.77845E-02   -0.56942E-03114804   0.592E-01    0.984E-01
DAV:  12    -0.662360865528E+02    0.11879E-02   -0.43564E-03121518   0.510E-01    0.229E-01
DAV:  13    -0.662372530085E+02   -0.11665E-02   -0.26637E-04111696   0.123E-01    0.152E-01
DAV:  14    -0.662379311005E+02   -0.67809E-03   -0.60642E-05104229   0.528E-02    0.600E-02
DAV:  15    -0.662377981955E+02    0.13291E-03   -0.14020E-05 62145   0.290E-02    0.205E-02
DAV:  16    -0.662381078486E+02   -0.30965E-03   -0.42874E-06 66672   0.193E-02    0.768E-03
DAV:  17    -0.662380598668E+02    0.47982E-04   -0.17388E-06 48912   0.101E-02    0.381E-03
DAV:  18    -0.662380485126E+02    0.11354E-04   -0.66529E-07 48030   0.588E-03    0.211E-03
DAV:  19    -0.662380505711E+02   -0.20585E-05   -0.21826E-07 47748   0.339E-03
   1 F= -.66238051E+02 E0= -.66238051E+02  d E =-.662381E+02  mag=     0.0000
       N       E                     dE             d eps       ncg     rms          rms(c)
DAV:   1    -0.662427741442E+02   -0.47256E-02   -0.30318E+00 93750   0.123E+01    0.103E+00
DAV:   2    -0.662402223096E+02    0.25518E-02   -0.95705E-02105306   0.228E+00    0.627E-01
DAV:   3    -0.662419266206E+02   -0.17043E-02   -0.59273E-03112437   0.584E-01    0.301E-01
DAV:   4    -0.662417813684E+02    0.14525E-03   -0.61023E-04136425   0.170E-01    0.194E-01
DAV:   5    -0.662416872449E+02    0.94123E-04   -0.15862E-04126909   0.859E-02    0.157E-01
DAV:   6    -0.662421547267E+02   -0.46748E-03   -0.18117E-04127356   0.804E-02    0.820E-02
DAV:   7    -0.662420735682E+02    0.81159E-04   -0.73367E-05123414   0.532E-02    0.172E-02
DAV:   8    -0.662420798249E+02   -0.62568E-05   -0.53024E-06 63624   0.151E-02
   2 F= -.66242080E+02 E0= -.66242080E+02  d E =-.402925E-02  mag=    -0.0000
       N       E                     dE             d eps       ncg     rms          rms(c)
DAV:   1    -0.662424745316E+02   -0.40096E-03   -0.22787E-01 93264   0.338E+00    0.283E-01
DAV:   2    -0.662413556157E+02    0.11189E-02   -0.71659E-03115950   0.620E-01    0.169E-01
DAV:   3    -0.662420541965E+02   -0.69858E-03   -0.45940E-04112557   0.165E-01    0.824E-02
DAV:   4    -0.662420241572E+02    0.30039E-04   -0.50598E-05111045   0.483E-02    0.530E-02
DAV:   5    -0.662420137758E+02    0.10381E-04   -0.14313E-05 72468   0.268E-02    0.437E-02
DAV:   6    -0.662421466098E+02   -0.13283E-03   -0.21599E-05 76560   0.272E-02    0.217E-02
DAV:   7    -0.662421266466E+02    0.19963E-04   -0.86625E-06 58404   0.177E-02    0.574E-03
DAV:   8    -0.662421139505E+02    0.12696E-04   -0.12451E-06 46854   0.810E-03    0.405E-03
DAV:   9    -0.662421227908E+02   -0.88403E-05   -0.51139E-07 46752   0.431E-03
   3 F= -.66242123E+02 E0= -.66242123E+02  d E =-.407222E-02  mag=    -0.0000
       N       E                     dE             d eps       ncg     rms          rms(c)
DAV:   1    -0.662558396792E+02   -0.13726E-01   -0.84902E-01 98484   0.746E+00    0.992E-01
DAV:   2    -0.662480537807E+02    0.77859E-02   -0.42899E-02 98232   0.160E+00    0.543E-01
DAV:   3    -0.662431681794E+02    0.48856E-02   -0.63240E-03110838   0.580E-01    0.220E-01
DAV:   4    -0.662430500500E+02    0.11813E-03   -0.23797E-04121218   0.113E-01    0.138E-01
DAV:   5    -0.662435804542E+02   -0.53040E-03   -0.12520E-04130302   0.842E-02    0.899E-02
DAV:   6    -0.662432828439E+02    0.29761E-03   -0.28507E-05 84279   0.405E-02    0.589E-02
DAV:   7    -0.662433900565E+02   -0.10721E-03   -0.77738E-06 74334   0.235E-02    0.193E-02
DAV:   8    -0.662435183403E+02   -0.12828E-03   -0.30904E-06 48396   0.138E-02    0.608E-03
DAV:   9    -0.662434926030E+02    0.25737E-04   -0.69700E-07 47388   0.736E-03    0.345E-03
DAV:  10    -0.662434945502E+02   -0.19472E-05   -0.28778E-07 46896   0.394E-03
   4 F= -.66243495E+02 E0= -.66243495E+02  d E =-.137176E-02  mag=    -0.0000
       N       E                     dE             d eps       ncg     rms          rms(c)
DAV:   1    -0.662739122048E+02   -0.30420E-01   -0.20136E+00 98508   0.115E+01    0.153E+00
DAV:   2    -0.662518239057E+02    0.22088E-01   -0.10181E-01 98268   0.247E+00    0.833E-01
DAV:   3    -0.662435680556E+02    0.82559E-02   -0.15118E-02109164   0.895E-01    0.339E-01
DAV:   4    -0.662432764721E+02    0.29158E-03   -0.57901E-04118959   0.172E-01    0.207E-01
DAV:   5    -0.662440630021E+02   -0.78653E-03   -0.31321E-04121284   0.130E-01    0.135E-01
DAV:   6    -0.662436204923E+02    0.44251E-03   -0.67927E-05112233   0.597E-02    0.896E-02
DAV:   7    -0.662437785506E+02   -0.15806E-03   -0.17926E-05 76944   0.315E-02    0.309E-02
DAV:   8    -0.662439622238E+02   -0.18367E-03   -0.80051E-06 57300   0.210E-02    0.893E-03
DAV:   9    -0.662439314870E+02    0.30737E-04   -0.12343E-06 48066   0.106E-02    0.573E-03
DAV:  10    -0.662439380106E+02   -0.65236E-05   -0.56438E-07 47220   0.559E-03
   5 F= -.66243938E+02 E0= -.66243938E+02  d E =-.181522E-02  mag=    -0.0000
       N       E                     dE             d eps       ncg     rms          rms(c)
DAV:   1    -0.662463434973E+02   -0.24120E-02   -0.37213E-01 92928   0.451E+00    0.520E-01
DAV:   2    -0.662457341176E+02    0.60938E-03   -0.95580E-03103824   0.791E-01    0.324E-01
DAV:   3    -0.662444791930E+02    0.12549E-02   -0.72589E-04121434   0.232E-01    0.146E-01
DAV:   4    -0.662446584897E+02   -0.17930E-03   -0.28681E-04139590   0.102E-01    0.115E-01
DAV:   5    -0.662446846960E+02   -0.26206E-04   -0.60368E-05 95916   0.502E-02    0.926E-02
DAV:   6    -0.662448964875E+02   -0.21179E-03   -0.94914E-05 79740   0.465E-02    0.286E-02
DAV:   7    -0.662449097135E+02   -0.13226E-04   -0.13678E-05 82266   0.239E-02    0.126E-02
DAV:   8    -0.662449463413E+02   -0.36628E-04   -0.22149E-06 47952   0.114E-02    0.732E-03
DAV:   9    -0.662449502722E+02   -0.39308E-05   -0.19351E-06 47400   0.881E-03
   6 F= -.66244950E+02 E0= -.66244950E+02  d E =-.101226E-02  mag=    -0.0000
       N       E                     dE             d eps       ncg     rms          rms(c)
DAV:   1    -0.662600282194E+02   -0.15082E-01   -0.33490E+00 92928   0.135E+01    0.155E+00
DAV:   2    -0.662512660851E+02    0.87621E-02   -0.85969E-02102300   0.237E+00    0.959E-01
DAV:   3    -0.662450087060E+02    0.62574E-02   -0.67080E-03122976   0.691E-01    0.437E-01
DAV:   4    -0.662452557222E+02   -0.24702E-03   -0.24995E-03134946   0.293E-01    0.340E-01
DAV:   5    -0.662453162887E+02   -0.60566E-04   -0.55534E-04125544   0.142E-01    0.273E-01
DAV:   6    -0.662460512371E+02   -0.73495E-03   -0.85116E-04117762   0.131E-01    0.850E-02
DAV:   7    -0.662460908857E+02   -0.39649E-04   -0.11213E-04122433   0.606E-02    0.456E-02
DAV:   8    -0.662462234351E+02   -0.13255E-03   -0.13688E-05 74229   0.224E-02    0.262E-02
DAV:   9    -0.662462468534E+02   -0.23418E-04   -0.20459E-05 69726   0.251E-02    0.101E-02
DAV:  10    -0.662462674171E+02   -0.20564E-04   -0.25679E-06 49644   0.105E-02    0.614E-03
DAV:  11    -0.662462655177E+02    0.18994E-05   -0.14759E-06 47352   0.640E-03
   7 F= -.66246266E+02 E0= -.66246266E+02  d E =-.232751E-02  mag=    -0.0000
       N       E                     dE             d eps       ncg     rms          rms(c)
DAV:   1    -0.662476131929E+02   -0.13458E-02   -0.55323E-02 92928   0.183E+00    0.418E-01
DAV:   2    -0.662463941575E+02    0.12190E-02   -0.18020E-03110610   0.371E-01    0.262E-01
DAV:   3    -0.662471833987E+02   -0.78924E-03   -0.34635E-04116298   0.150E-01    0.106E-01
DAV:   4    -0.662470025108E+02    0.18089E-03   -0.56883E-05105936   0.543E-02    0.891E-02
DAV:   5    -0.662469945193E+02    0.79914E-05   -0.11063E-05 59964   0.266E-02    0.814E-02
DAV:   6    -0.662468575168E+02    0.13700E-03   -0.19138E-05 66576   0.321E-02    0.243E-02
DAV:   7    -0.662468344617E+02    0.23055E-04   -0.48425E-06 69168   0.176E-02    0.562E-03
DAV:   8    -0.662468123161E+02    0.22146E-04   -0.93056E-07 46566   0.824E-03    0.340E-03
DAV:   9    -0.662468065783E+02    0.57378E-05   -0.25422E-07 46464   0.390E-03
   8 F= -.66246807E+02 E0= -.66246807E+02  d E =-.541061E-03  mag=    -0.0000
