       N       E                     dE             d eps       ncg     rms          rms(c)
DAV:   1     0.776805725366E+03    0.77681E+03   -0.33643E+04110988   0.225E+03
DAV:   2     0.971037624875E+01   -0.76710E+03   -0.72263E+03113112   0.638E+02
DAV:   3    -0.751403103687E+02   -0.84851E+02   -0.83811E+02129987   0.210E+02
DAV:   4    -0.770880762760E+02   -0.19478E+01   -0.19444E+01114381   0.339E+01
DAV:   5    -0.771227626850E+02   -0.34686E-01   -0.34685E-01139491   0.448E+00    0.213E+01
DAV:   6    -0.608473294453E+02    0.16275E+02   -0.64580E+01121806   0.649E+01    0.240E+01
DAV:   7    -0.628656227772E+02   -0.20183E+01   -0.60529E+00122229   0.369E+01    0.253E+01
DAV:   8    -0.612879220642E+02    0.15777E+01   -0.34326E+00126702   0.374E+01    0.123E+01
DAV:   9    -0.618288004755E+02   -0.54088E+00   -0.13714E+00109476   0.992E+00    0.731E+00
DAV:  10    -0.621112566459E+02   -0.28246E+00   -0.12674E+00121428   0.576E+00    0.265E+00
DAV:  11    -0.620652421590E+02    0.46014E-01   -0.71514E-02109584   0.322E+00    0.166E+00
DAV:  12    -0.620944634333E+02   -0.29221E-01   -0.20391E-02117729   0.186E+00    0.109E+00
DAV:  13    -0.620808909358E+02    0.13572E-01   -0.17390E-02131886   0.205E+00    0.472E-01
DAV:  14    -0.620844739236E+02   -0.35830E-02   -0.51841E-03128232   0.575E-01    0.386E-01
DAV:  15    -0.620836482478E+02    0.82568E-03   -0.23048E-03136557   0.608E-01    0.219E-01
DAV:  16    -0.620841984679E+02   -0.55022E-03   -0.22018E-03135288   0.660E-01    0.879E-02
DAV:  17    -0.620851586507E+02   -0.96018E-03   -0.96226E-04132939   0.318E-01    0.366E-02
DAV:  18    -0.620854268683E+02   -0.26822E-03   -0.17546E-04 97218   0.977E-02    0.237E-02
DAV:  19    -0.620853947685E+02    0.32100E-04   -0.15136E-05 56619   0.254E-02    0.156E-02
DAV:  20    -0.620853149592E+02    0.79809E-04   -0.25678E-05 54504   0.298E-02    0.105E-02
DAV:  21    -0.620853519351E+02   -0.36976E-04   -0.85180E-06 54342   0.186E-02    0.814E-03
DAV:  22    -0.620853369972E+02    0.14938E-04   -0.91659E-06 54297   0.132E-02    0.706E-03
DAV:  23    -0.620852974702E+02    0.39527E-04   -0.19394E-05 54288   0.188E-02    0.577E-03
DAV:  24    -0.620852619769E+02    0.35493E-04   -0.13540E-04 69030   0.455E-02    0.495E-03
DAV:  25    -0.620852682293E+02   -0.62524E-05   -0.68301E-05 60948   0.289E-02
   1 F= -.62085268E+02 E0= -.62085268E+02  d E =-.620853E+02  mag=     0.0005
       N       E                     dE             d eps       ncg     rms          rms(c)
DAV:   1    -0.622494790492E+02   -0.16422E+00   -0.34761E+00109458   0.180E+01    0.312E+00
DAV:   2    -0.621088501998E+02    0.14063E+00   -0.47604E-01108594   0.645E+00    0.154E+00
DAV:   3    -0.620966007195E+02    0.12249E-01   -0.32419E-02122382   0.154E+00    0.869E-01
DAV:   4    -0.620932019054E+02    0.33988E-02   -0.15940E-03114480   0.341E-01    0.381E-01
DAV:   5    -0.620917127132E+02    0.14892E-02   -0.14726E-03124929   0.300E-01    0.621E-02
DAV:   6    -0.620910884302E+02    0.62428E-03   -0.11290E-04120942   0.913E-02    0.301E-02
DAV:   7    -0.620910988121E+02   -0.10382E-04   -0.26144E-05 76698   0.403E-02    0.148E-02
DAV:   8    -0.620911291261E+02   -0.30314E-04   -0.19367E-05 56682   0.270E-02    0.836E-03
DAV:   9    -0.620911182756E+02    0.10850E-04   -0.48654E-06 54594   0.128E-02    0.697E-03
DAV:  10    -0.620911259044E+02   -0.76287E-05   -0.14732E-05 54324   0.152E-02
   2 F= -.62091126E+02 E0= -.62091126E+02  d E =-.585768E-02  mag=    -0.0000
       N       E                     dE             d eps       ncg     rms          rms(c)
DAV:   1    -0.621134404194E+02   -0.22322E-01   -0.49792E-01109656   0.685E+00    0.118E+00
DAV:   2    -0.620942797352E+02    0.19161E-01   -0.66592E-02108504   0.244E+00    0.589E-01
DAV:   3    -0.620921617516E+02    0.21180E-02   -0.47499E-03122355   0.589E-01    0.334E-01
DAV:   4    -0.620915252486E+02    0.63650E-03   -0.25091E-04115155   0.130E-01    0.146E-01
DAV:   5    -0.620912729149E+02    0.25233E-03   -0.24396E-04125217   0.113E-01    0.242E-02
DAV:   6    -0.620909997824E+02    0.27313E-03   -0.17794E-05 79173   0.359E-02    0.127E-02
DAV:   7    -0.620910235200E+02   -0.23738E-04   -0.92577E-06 55809   0.214E-02    0.680E-03
DAV:   8    -0.620910303847E+02   -0.68647E-05   -0.47631E-06 54486   0.124E-02
   3 F= -.62091030E+02 E0= -.62091030E+02  d E =-.576216E-02  mag=    -0.0000
       N       E                     dE             d eps       ncg     rms          rms(c)
DAV:   1    -0.620973467753E+02   -0.63233E-02   -0.13785E-01109872   0.362E+00    0.618E-01
DAV:   2    -0.620912253453E+02    0.61214E-02   -0.18265E-02108468   0.129E+00    0.312E-01
DAV:   3    -0.620910735267E+02    0.15182E-03   -0.13008E-03122238   0.310E-01    0.177E-01
DAV:   4    -0.620911483674E+02   -0.74841E-04   -0.68674E-05114255   0.673E-02    0.774E-02
DAV:   5    -0.620911466723E+02    0.16951E-05   -0.75028E-05124110   0.613E-02    0.128E-02
DAV:   6    -0.620912838132E+02   -0.13714E-03   -0.60644E-06 57411   0.192E-02    0.750E-03
DAV:   7    -0.620912772793E+02    0.65339E-05   -0.62398E-06 54324   0.135E-02
   4 F= -.62091277E+02 E0= -.62091277E+02  d E =-.600905E-02  mag=    -0.0000
       N       E                     dE             d eps       ncg     rms          rms(c)
DAV:   1    -0.620999682115E+02   -0.86844E-02   -0.10007E+00108288   0.718E+00    0.801E-01
DAV:   2    -0.620966664177E+02    0.33018E-02   -0.33269E-02124722   0.147E+00    0.478E-01
DAV:   3    -0.620924099993E+02    0.42564E-02   -0.10190E-02119556   0.565E-01    0.252E-01
DAV:   4    -0.620926926050E+02   -0.28261E-03   -0.13054E-03117108   0.219E-01    0.783E-02
DAV:   5    -0.620925565746E+02    0.13603E-03   -0.51826E-05105012   0.767E-02    0.481E-02
DAV:   6    -0.620925673607E+02   -0.10786E-04   -0.36834E-05100935   0.742E-02    0.172E-02
DAV:   7    -0.620925328597E+02    0.34501E-04   -0.10256E-05 65088   0.247E-02    0.698E-03
DAV:   8    -0.620925424089E+02   -0.95493E-05   -0.36870E-06 55224   0.135E-02
   5 F= -.62092542E+02 E0= -.62092542E+02  d E =-.126513E-02  mag=    -0.0000
