       N       E                     dE             d eps       ncg     rms          rms(c)
DAV:   1     0.890467759090E+03    0.89047E+03   -0.44866E+04 89448   0.168E+03
DAV:   2    -0.197529100320E+02   -0.91022E+03   -0.84631E+03 99576   0.492E+02
DAV:   3    -0.101894263499E+03   -0.82141E+02   -0.78551E+02 95856   0.163E+02
DAV:   4    -0.103996252753E+03   -0.21020E+01   -0.20950E+01 96240   0.291E+01
DAV:   5    -0.104056540624E+03   -0.60288E-01   -0.60282E-01 99736   0.460E+00    0.572E+00
DAV:   6    -0.790754222861E+02    0.24981E+02   -0.10841E+01 88464   0.184E+01    0.414E+00
DAV:   7    -0.789360348059E+02    0.13939E+00   -0.35442E-01127840   0.540E+00    0.262E+00
DAV:   8    -0.789150492559E+02    0.20986E-01   -0.38352E-02 87504   0.149E+00    0.177E+00
DAV:   9    -0.789028947630E+02    0.12154E-01   -0.12125E-02 94056   0.592E-01    0.135E+00
DAV:  10    -0.788989522949E+02    0.39425E-02   -0.23360E-03 88048   0.285E-01    0.109E+00
DAV:  11    -0.788944010288E+02    0.45513E-02   -0.41585E-03 91352   0.342E-01    0.782E-01
DAV:  12    -0.788932955232E+02    0.11055E-02   -0.51013E-04 91840   0.128E-01    0.668E-01
DAV:  13    -0.788910590984E+02    0.22364E-02   -0.33328E-03 88256   0.308E-01    0.382E-01
DAV:  14    -0.788903084385E+02    0.75066E-03   -0.14843E-03 93432   0.210E-01    0.181E-01
DAV:  15    -0.788901178209E+02    0.19062E-03   -0.48028E-04 88624   0.117E-01    0.698E-02
DAV:  16    -0.788900913918E+02    0.26429E-04   -0.95379E-05 88544   0.531E-02    0.166E-02
DAV:  17    -0.788900899734E+02    0.14184E-05   -0.87247E-06 43392   0.167E-02
   1 F= -.78890090E+02 E0= -.78890090E+02  d E =-.788901E+02  mag=    -0.0000
