       N       E                     dE             d eps       ncg     rms          rms(c)
DAV:   1     0.175019884524E+04    0.17502E+04   -0.78405E+04128952   0.185E+03
DAV:   2     0.332769559380E+02   -0.17169E+04   -0.15941E+04132820   0.543E+02
DAV:   3    -0.168435477707E+03   -0.20171E+03   -0.19365E+03131176   0.198E+02
DAV:   4    -0.175061743495E+03   -0.66263E+01   -0.65972E+01129228   0.366E+01
DAV:   5    -0.175153918892E+03   -0.92175E-01   -0.92105E-01134684   0.462E+00    0.763E+00
DAV:   6    -0.136478386269E+03    0.38676E+02   -0.16884E+01127148   0.178E+01    0.977E+00
DAV:   7    -0.136359114796E+03    0.11927E+00   -0.31809E-01128192   0.359E+00    0.451E+00
DAV:   8    -0.136291214152E+03    0.67901E-01   -0.14044E-01127800   0.164E+00    0.232E+00
DAV:   9    -0.136280471192E+03    0.10743E-01   -0.62809E-03128200   0.346E-01    0.203E+00
DAV:  10    -0.136265356572E+03    0.15115E-01   -0.13771E-02127620   0.522E-01    0.145E+00
DAV:  11    -0.136258420975E+03    0.69356E-02   -0.61217E-03128040   0.346E-01    0.106E+00
DAV:  12    -0.136255396425E+03    0.30245E-02   -0.21193E-03127640   0.204E-01    0.820E-01
DAV:  13    -0.136253931970E+03    0.14645E-02   -0.80800E-04127880   0.125E-01    0.673E-01
DAV:  14    -0.136251351726E+03    0.25802E-02   -0.68518E-03127256   0.368E-01    0.229E-01
DAV:  15    -0.136251077581E+03    0.27414E-03   -0.10590E-03129316   0.145E-01    0.675E-02
DAV:  16    -0.136251066178E+03    0.11403E-04   -0.55513E-05110496   0.334E-02    0.276E-02
DAV:  17    -0.136251067055E+03   -0.87654E-06   -0.49271E-06 68400   0.130E-02
   1 F= -.13625107E+03 E0= -.13625107E+03  d E =-.136251E+03  mag=    -0.0000
