       N       E                     dE             d eps       ncg     rms          rms(c)
DAV:   1     0.885897361827E+03    0.88590E+03   -0.44922E+04 89032   0.169E+03
DAV:   2    -0.288398028193E+02   -0.91474E+03   -0.85051E+03 99408   0.494E+02
DAV:   3    -0.111072115881E+03   -0.82232E+02   -0.78515E+02 95792   0.163E+02
DAV:   4    -0.113097186947E+03   -0.20251E+01   -0.20181E+01 95784   0.285E+01
DAV:   5    -0.113153735236E+03   -0.56548E-01   -0.56543E-01 99528   0.445E+00    0.557E+00
DAV:   6    -0.892120713713E+02    0.23942E+02   -0.95552E+00 88504   0.171E+01    0.399E+00
DAV:   7    -0.891001891788E+02    0.11188E+00   -0.31260E-01126192   0.498E+00    0.252E+00
DAV:   8    -0.890782668459E+02    0.21922E-01   -0.33267E-02 87440   0.141E+00    0.171E+00
DAV:   9    -0.890688268725E+02    0.94400E-02   -0.10054E-02 94168   0.539E-01    0.132E+00
DAV:  10    -0.890654538421E+02    0.33730E-02   -0.20758E-03 88272   0.268E-01    0.107E+00
DAV:  11    -0.890619225124E+02    0.35313E-02   -0.35457E-03 92744   0.317E-01    0.771E-01
DAV:  12    -0.890609464576E+02    0.97605E-03   -0.55777E-04 90064   0.132E-01    0.648E-01
DAV:  13    -0.890593897051E+02    0.15568E-02   -0.33310E-03 89344   0.310E-01    0.351E-01
DAV:  14    -0.890590793749E+02    0.31033E-03   -0.11769E-03 92864   0.188E-01    0.166E-01
DAV:  15    -0.890591131956E+02   -0.33821E-04   -0.40417E-04 89504   0.107E-01    0.607E-02
DAV:  16    -0.890591724328E+02   -0.59237E-04   -0.59440E-05 80504   0.426E-02    0.170E-02
DAV:  17    -0.890591897594E+02   -0.17327E-04   -0.68121E-06 43392   0.159E-02    0.286E-03
DAV:  18    -0.890591921925E+02   -0.24332E-05   -0.91229E-07 43392   0.798E-03
   1 F= -.89059192E+02 E0= -.89059192E+02  d E =-.890592E+02  mag=     0.0000
