       N       E                     dE             d eps       ncg     rms          rms(c)
DAV:   1     0.760925224478E+03    0.76093E+03   -0.33100E+04100749   0.214E+03
DAV:   2     0.187813803447E+02   -0.74214E+03   -0.70148E+03103428   0.613E+02
DAV:   3    -0.734393942795E+02   -0.92221E+02   -0.90566E+02116214   0.216E+02
DAV:   4    -0.764881695833E+02   -0.30488E+01   -0.29902E+01110757   0.380E+01
DAV:   5    -0.765457583611E+02   -0.57589E-01   -0.57272E-01110805   0.558E+00    0.232E+01
DAV:   6    -0.599393137963E+02    0.16606E+02   -0.70295E+01119613   0.705E+01    0.299E+01
DAV:   7    -0.625053489976E+02   -0.25660E+01   -0.48517E+00100941   0.310E+01    0.160E+01
DAV:   8    -0.625155283159E+02   -0.10179E-01   -0.97715E-01110337   0.148E+01    0.104E+01
DAV:   9    -0.629507181157E+02   -0.43519E+00   -0.62163E-01110412   0.133E+01    0.188E+00
DAV:  10    -0.629776567350E+02   -0.26939E-01   -0.14693E-01104742   0.393E+00    0.562E-01
DAV:  11    -0.629776296091E+02    0.27126E-04   -0.22478E-02111750   0.176E+00    0.300E-01
DAV:  12    -0.629797206439E+02   -0.20910E-02   -0.33251E-03115824   0.442E-01    0.214E-01
DAV:  13    -0.629810011908E+02   -0.12805E-02   -0.56791E-03101868   0.476E-01    0.150E-01
DAV:  14    -0.629815080822E+02   -0.50689E-03   -0.85078E-04121731   0.162E-01    0.138E-01
DAV:  15    -0.629812480133E+02    0.26007E-03   -0.38434E-04101826   0.126E-01    0.599E-02
DAV:  16    -0.629808619621E+02    0.38605E-03   -0.40502E-04112212   0.121E-01    0.275E-02
DAV:  17    -0.629808930261E+02   -0.31064E-04   -0.91706E-05 88167   0.483E-02    0.362E-02
DAV:  18    -0.629809710116E+02   -0.77985E-04   -0.33129E-05 82320   0.391E-02    0.113E-02
DAV:  19    -0.629810037617E+02   -0.32750E-04   -0.68507E-06 50268   0.187E-02    0.362E-03
DAV:  20    -0.629810077040E+02   -0.39423E-05   -0.18208E-06 50046   0.958E-03
   1 F= -.62981008E+02 E0= -.62981008E+02  d E =-.629810E+02  mag=    -0.0000
       N       E                     dE             d eps       ncg     rms          rms(c)
DAV:   1    -0.630283980612E+02   -0.47394E-01   -0.10383E+00106464   0.108E+01    0.184E+00
DAV:   2    -0.629900776686E+02    0.38320E-01   -0.14473E-01105246   0.349E+00    0.106E+00
DAV:   3    -0.629837658470E+02    0.63118E-02   -0.11848E-02112566   0.119E+00    0.491E-01
DAV:   4    -0.629830115085E+02    0.75434E-03   -0.65528E-04110046   0.240E-01    0.285E-01
DAV:   5    -0.629830127262E+02   -0.12177E-05   -0.34650E-04109740   0.167E-01    0.596E-02
DAV:   6    -0.629823461914E+02    0.66653E-03   -0.36075E-05 97452   0.596E-02    0.145E-02
DAV:   7    -0.629824638049E+02   -0.11761E-03   -0.43381E-06 54570   0.182E-02    0.769E-03
DAV:   8    -0.629824649751E+02   -0.11701E-05   -0.45836E-06 50916   0.134E-02
   2 F= -.62982465E+02 E0= -.62982465E+02  d E =-.145727E-02  mag=     0.0000
