       N       E                     dE             d eps       ncg     rms          rms(c)
DAV:   1     0.552567609498E+04    0.55257E+04   -0.24371E+05 73400   0.165E+03
DAV:   2     0.110533025413E+03   -0.54151E+04   -0.49930E+04 76596   0.484E+02
DAV:   3    -0.674514670147E+03   -0.78505E+03   -0.72445E+03 77192   0.193E+02
DAV:   4    -0.710152692573E+03   -0.35638E+02   -0.35259E+02 75604   0.418E+01
DAV:   5    -0.710974977881E+03   -0.82229E+00   -0.82072E+00 82544   0.679E+00    0.124E+01
DAV:   6    -0.575335212823E+03    0.13564E+03   -0.50382E+01 74436   0.149E+01    0.803E+00
DAV:   7    -0.574467528859E+03    0.86768E+00   -0.23035E+00100408   0.555E+00    0.598E+00
DAV:   8    -0.574413375218E+03    0.54154E-01   -0.20271E-01 76560   0.160E+00    0.376E+00
DAV:   9    -0.574356199626E+03    0.57176E-01   -0.58420E-02 78456   0.568E-01    0.299E+00
DAV:  10    -0.574345006439E+03    0.11193E-01   -0.45712E-03 73868   0.181E-01    0.256E+00
DAV:  11    -0.574328122573E+03    0.16884E-01   -0.71108E-03 76584   0.172E-01    0.214E+00
DAV:  12    -0.574303036952E+03    0.25086E-01   -0.27286E-02 74644   0.341E-01    0.129E+00
DAV:  13    -0.574294903777E+03    0.81332E-02   -0.72114E-03 79628   0.178E-01    0.845E-01
DAV:  14    -0.574293209724E+03    0.16941E-02   -0.56380E-04 76192   0.488E-02    0.743E-01
DAV:  15    -0.574289690583E+03    0.35191E-02   -0.32970E-03 75456   0.118E-01    0.473E-01
DAV:  16    -0.574287376395E+03    0.23142E-02   -0.41336E-03 75968   0.133E-01    0.145E-01
DAV:  17    -0.574287079256E+03    0.29714E-03   -0.27358E-04 79340   0.355E-02    0.579E-02
DAV:  18    -0.574286995521E+03    0.83735E-04   -0.32046E-05 49688   0.115E-02    0.293E-02
DAV:  19    -0.574286959576E+03    0.35945E-04   -0.51479E-06 37556   0.565E-03    0.130E-02
DAV:  20    -0.574286949803E+03    0.97724E-05   -0.15130E-06 37356   0.323E-03
   1 F= -.57428695E+03 E0= -.57428695E+03  d E =-.574287E+03  mag=    -0.0000
