       N       E                     dE             d eps       ncg     rms          ort
DAV:   1     0.329640736185E+04    0.32964E+04   -0.13827E+05 18544   0.189E+03
DAV:   2     0.167218506525E+03   -0.31292E+04   -0.28614E+04 18544   0.524E+02
DAV:   3    -0.350907655435E+03   -0.51813E+03   -0.50226E+03 18544   0.229E+02
DAV:   4    -0.375551973137E+03   -0.24644E+02   -0.24364E+02 18544   0.544E+01
DAV:   5    -0.376362257658E+03   -0.81028E+00   -0.80684E+00 18544   0.103E+01
SDA:   6    -0.101156851825E+03    0.27521E+03   -0.80684E+00 18544   0.704E+03 0.000E+00
CGA:   7    -0.206360085307E+03   -0.10520E+03   -0.10254E+03 18544   0.155E+03-0.117E+02
CGA:   8    -0.233943328220E+03   -0.27583E+02   -0.26692E+02 18544   0.724E+02-0.147E+02
CGA:   9    -0.242495847599E+03   -0.85525E+01   -0.93042E+01 18544   0.332E+02 0.508E+01
CGA:  10    -0.246875388336E+03   -0.43795E+01   -0.44430E+01 18544   0.647E+02-0.105E+00
CGA:  11    -0.246609334562E+03    0.26605E+00   -0.26885E+01 18544   0.529E+02-0.364E+02
CGA:  12    -0.244086473123E+03    0.25229E+01   -0.32877E+01 18544   0.904E+02-0.229E+02
CGA:  13    -0.249673395227E+03   -0.55869E+01   -0.22307E+01 18544   0.305E+02-0.116E+02
CGA:  14    -0.249542457601E+03    0.13094E+00   -0.13272E+01 18544   0.677E+02-0.338E+02
CGA:  15    -0.248034358570E+03    0.15081E+01   -0.42062E+01 18544   0.707E+02-0.270E+02
CGA:  16    -0.249855947879E+03   -0.18216E+01   -0.23537E+01 18544   0.577E+02-0.381E+02
CGA:  17    -0.249599785560E+03    0.25616E+00   -0.28302E+01 18544   0.107E+03-0.633E+02
CGA:  18    -0.248883182135E+03    0.71660E+00   -0.59751E+01 18544   0.997E+02-0.698E+02
CGA:  19    -0.250245208210E+03   -0.13620E+01   -0.51211E+01 18544   0.372E+02-0.291E+02
CGA:  20    -0.251844913306E+03   -0.15997E+01   -0.17534E+01 18544   0.515E+01-0.650E+01
CGA:  21    -0.252298785606E+03   -0.45387E+00   -0.46165E+00 18544   0.135E+01 0.213E+00
CGA:  22    -0.252479441923E+03   -0.18066E+00   -0.18317E+00 18544   0.272E+00 0.322E+00
CGA:  23    -0.252535796004E+03   -0.56354E-01   -0.53853E-01 18544   0.770E-01 0.603E-01
CGA:  24    -0.252582825833E+03   -0.47030E-01   -0.43507E-01 18544   0.745E-01 0.101E-01
CGA:  25    -0.252607463843E+03   -0.24638E-01   -0.23686E-01 18544   0.346E-01 0.768E-02
CGA:  26    -0.252619468231E+03   -0.12004E-01   -0.11264E-01 18544   0.207E-01 0.559E-02
CGA:  27    -0.252628520145E+03   -0.90519E-02   -0.81954E-02 18544   0.167E-01 0.504E-02
CGA:  28    -0.252635971414E+03   -0.74513E-02   -0.67674E-02 18544   0.134E-01 0.467E-02
CGA:  29    -0.252643421284E+03   -0.74499E-02   -0.65226E-02 18544   0.113E-01 0.479E-02
CGA:  30    -0.252648833969E+03   -0.54127E-02   -0.49941E-02 18544   0.779E-02 0.326E-02
CGA:  31    -0.252652475341E+03   -0.36414E-02   -0.33767E-02 18544   0.451E-02 0.196E-02
CGA:  32    -0.252654429151E+03   -0.19538E-02   -0.18413E-02 18544   0.282E-02 0.101E-02
CGA:  33    -0.252655551577E+03   -0.11224E-02   -0.10624E-02 18544   0.196E-02 0.629E-03
CGA:  34    -0.252656464680E+03   -0.91310E-03   -0.83932E-03 18544   0.172E-02 0.537E-03
CGA:  35    -0.252657247352E+03   -0.78267E-03   -0.72902E-03 18544   0.165E-02 0.532E-03
CGA:  36    -0.252658061806E+03   -0.81445E-03   -0.73832E-03 18544   0.160E-02 0.659E-03
CGA:  37    -0.252658862551E+03   -0.80075E-03   -0.74496E-03 18544   0.162E-02 0.584E-03
CGA:  38    -0.252659633795E+03   -0.77124E-03   -0.72174E-03 18544   0.151E-02 0.565E-03
CGA:  39    -0.252660343922E+03   -0.71013E-03   -0.66796E-03 18544   0.167E-02 0.502E-03
CGA:  40    -0.252661111049E+03   -0.76713E-03   -0.72730E-03 18544   0.165E-02 0.491E-03
CGA:  41    -0.252661836257E+03   -0.72521E-03   -0.69778E-03 18544   0.183E-02 0.348E-03
CGA:  42    -0.252662543585E+03   -0.70733E-03   -0.69302E-03 18544   0.163E-02 0.255E-03
CGA:  43    -0.252663095743E+03   -0.55216E-03   -0.54702E-03 18544   0.162E-02 0.141E-03
CGA:  44    -0.252663644267E+03   -0.54852E-03   -0.54769E-03 18544   0.168E-02 0.205E-04
CGA:  45    -0.252664149657E+03   -0.50539E-03   -0.50893E-03 18544   0.197E-02-0.675E-04
CGA:  46    -0.252664675675E+03   -0.52602E-03   -0.52853E-03 18544   0.209E-02-0.626E-04
CGA:  47    -0.252665122816E+03   -0.44714E-03   -0.44378E-03 18544   0.186E-02 0.384E-04
CGA:  48    -0.252665544531E+03   -0.42171E-03   -0.41999E-03 18544   0.170E-02 0.128E-04
SDA:  49    -0.252665904497E+03   -0.35997E-03   -0.35444E-03 18544   0.140E-02-0.930E-04
CGA:  50    -0.252666615800E+03   -0.71130E-03   -0.85895E-03 18544   0.264E-02-0.422E-03
CGA:  51    -0.252667335535E+03   -0.71973E-03   -0.89918E-03 18544   0.307E-02-0.865E-03
CGA:  52    -0.252668057764E+03   -0.72223E-03   -0.15762E-02 18544   0.490E-02-0.178E-02
CGA:  53    -0.252669249688E+03   -0.11919E-02   -0.12102E-02 18544   0.133E-02 0.174E-03
CGA:  54    -0.252669811013E+03   -0.56133E-03   -0.55341E-03 18544   0.636E-03 0.105E-03
CGA:  55    -0.252670066322E+03   -0.25531E-03   -0.25271E-03 18544   0.315E-03 0.538E-04
CGA:  56    -0.252670202059E+03   -0.13574E-03   -0.13365E-03 18544   0.209E-03 0.311E-04
CGA:  57    -0.252670330912E+03   -0.12885E-03   -0.16288E-03 18544   0.388E-03-0.558E-04
CGA:  58    -0.252670393128E+03   -0.62216E-04   -0.69859E-04 18544   0.486E-03 0.377E-04
CGA:  59    -0.252670568839E+03   -0.17571E-03   -0.17573E-03 18544   0.464E-03-0.355E-04
CGA:  60    -0.252670733838E+03   -0.16500E-03   -0.17758E-03 18544   0.598E-03-0.158E-03
CGA:  61    -0.252670871437E+03   -0.13760E-03   -0.15472E-03 18544   0.796E-03-0.245E-03
CGA:  62    -0.252670993262E+03   -0.12182E-03   -0.10354E-03 18544   0.752E-03-0.170E-03
CGA:  63    -0.252671147828E+03   -0.15457E-03   -0.12940E-03 18544   0.569E-03-0.215E-03
CGA:  64    -0.252671259233E+03   -0.11141E-03   -0.90211E-04 18544   0.496E-03-0.189E-03
CGA:  65    -0.252671351349E+03   -0.92116E-04   -0.74656E-04 18544   0.495E-03-0.176E-03
CGA:  66    -0.252671433608E+03   -0.82259E-04   -0.64830E-04 18544   0.468E-03-0.155E-03
CGA:  67    -0.252671506621E+03   -0.73013E-04   -0.57926E-04 18544   0.401E-03-0.120E-03
CGA:  68    -0.252671569642E+03   -0.63021E-04   -0.52913E-04 18544   0.359E-03-0.836E-04
CGA:  69    -0.252671625876E+03   -0.56234E-04   -0.50194E-04 18544   0.346E-03-0.497E-04
CGA:  70    -0.252671680592E+03   -0.54716E-04   -0.51986E-04 18544   0.352E-03-0.200E-04
CGA:  71    -0.252671734053E+03   -0.53460E-04   -0.53740E-04 18544   0.345E-03 0.751E-05
CGA:  72    -0.252671781966E+03   -0.47913E-04   -0.51357E-04 18544   0.321E-03 0.322E-04
CGA:  73    -0.252671823024E+03   -0.41058E-04   -0.47507E-04 18544   0.304E-03 0.550E-04
CGA:  74    -0.252671858272E+03   -0.35248E-04   -0.44632E-04 18544   0.285E-03 0.777E-04
CGA:  75    -0.252671887666E+03   -0.29394E-04   -0.41478E-04 18544   0.263E-03 0.972E-04
CGA:  76    -0.252671912110E+03   -0.24443E-04   -0.38614E-04 18544   0.247E-03 0.113E-03
CGA:  77    -0.252671933379E+03   -0.21270E-04   -0.37159E-04 18544   0.232E-03 0.127E-03
CGA:  78    -0.252672065965E+03   -0.13259E-03   -0.11609E-03 18544   0.156E-03 0.647E-04
CGA:  79    -0.252672149869E+03   -0.83904E-04   -0.73784E-04 18544   0.926E-04 0.909E-04
CGA:  80    -0.252672176078E+03   -0.26209E-04   -0.25567E-04 18544   0.539E-04 0.363E-04
CGA:  81    -0.252672194357E+03   -0.18279E-04   -0.18736E-04 18544   0.388E-04 0.538E-04
CGA:  82    -0.252672203144E+03   -0.87872E-05   -0.93128E-05 18544   0.302E-04 0.299E-04
   1 F= -.25267220E+03 E0= -.25267220E+03  d E =-.252672E+03  mag=     4.0000
       N       E                     dE             d eps       ncg     rms          ort
SDA:   1    -0.252642845502E+03    0.29349E-01    0.00000E+00 18544   0.100E+00 0.000E+00
CGA:   2    -0.252662132637E+03   -0.19287E-01   -0.19402E-01 18544   0.376E-01 0.194E-02
CGA:   3    -0.252669932878E+03   -0.78002E-02   -0.78197E-02 18544   0.122E-01 0.350E-03
CGA:   4    -0.252671899728E+03   -0.19668E-02   -0.19738E-02 18544   0.272E-02 0.754E-04
CGA:   5    -0.252672407072E+03   -0.50734E-03   -0.50717E-03 18544   0.670E-03-0.338E-05
CGA:   6    -0.252672527011E+03   -0.11994E-03   -0.12241E-03 18544   0.164E-03 0.413E-04
CGA:   7    -0.252672543177E+03   -0.16166E-04   -0.24131E-04 18544   0.560E-04 0.789E-04
CGA:   8    -0.252672546472E+03   -0.32958E-05   -0.91477E-05 18544   0.303E-04 0.472E-04
   2 F= -.25267255E+03 E0= -.25267255E+03  d E =-.343328E-03  mag=     4.0000
       N       E                     dE             d eps       ncg     rms          ort
SDA:   1    -0.252670956419E+03    0.15868E-02    0.00000E+00 18544   0.491E-02 0.000E+00
CGA:   2    -0.252672047884E+03   -0.10915E-02   -0.10874E-02 18544   0.252E-02-0.513E-03
CGA:   3    -0.252672458868E+03   -0.41098E-03   -0.40906E-03 18544   0.703E-03-0.451E-04
CGA:   4    -0.252672558245E+03   -0.99377E-04   -0.10177E-03 18544   0.149E-03 0.305E-04
CGA:   5    -0.252672583041E+03   -0.24796E-04   -0.25861E-04 18544   0.362E-04 0.193E-04
CGA:   6    -0.252672589778E+03   -0.67373E-05   -0.71205E-05 18544   0.127E-04 0.856E-05
CGA:   7    -0.252672538039E+03    0.51739E-04   -0.26414E-04 18544   0.357E-03-0.607E-04
CGA:   8    -0.252672586687E+03   -0.48648E-04   -0.54417E-04 18544   0.560E-04 0.238E-04
CGA:   9    -0.252672592357E+03   -0.56699E-05   -0.10269E-04 18544   0.146E-04 0.217E-04
   3 F= -.25267259E+03 E0= -.25267259E+03  d E =-.389213E-03  mag=     4.0000
       N       E                     dE             d eps       ncg     rms          ort
SDA:   1    -0.252656267125E+03    0.16320E-01    0.00000E+00 18544   0.452E-01 0.000E+00
CGA:   2    -0.252668223719E+03   -0.11957E-01   -0.12042E-01 18544   0.211E-01 0.915E-03
CGA:   3    -0.252671954267E+03   -0.37305E-02   -0.37672E-02 18544   0.513E-02 0.150E-03
CGA:   4    -0.252672752472E+03   -0.79821E-03   -0.82732E-03 18544   0.107E-02 0.152E-03
CGA:   5    -0.252672940580E+03   -0.18811E-03   -0.19704E-03 18544   0.237E-03 0.556E-04
CGA:   6    -0.252672979097E+03   -0.38517E-04   -0.44073E-04 18544   0.620E-04 0.360E-04
CGA:   7    -0.252672982487E+03   -0.33894E-05   -0.96951E-05 18544   0.209E-04 0.336E-04
   4 F= -.25267298E+03 E0= -.25267298E+03  d E =-.390130E-03  mag=     4.0000
       N       E                     dE             d eps       ncg     rms          ort
SDA:   1    -0.252670704053E+03    0.22750E-02    0.00000E+00 18544   0.662E-02 0.000E+00
CGA:   2    -0.252672401119E+03   -0.16971E-02   -0.17150E-02 18544   0.275E-02 0.378E-03
CGA:   3    -0.252672930495E+03   -0.52938E-03   -0.53822E-03 18544   0.710E-03 0.685E-04
CGA:   4    -0.252673029919E+03   -0.99423E-04   -0.11040E-03 18544   0.144E-03 0.746E-04
CGA:   5    -0.252673053125E+03   -0.23206E-04   -0.26425E-04 18544   0.326E-04 0.259E-04
CGA:   6    -0.252673056744E+03   -0.36191E-05   -0.55994E-05 18544   0.105E-04 0.142E-04
   5 F= -.25267306E+03 E0= -.25267306E+03  d E =-.464387E-03  mag=     4.0000
       N       E                     dE             d eps       ncg     rms          ort
SDA:   1    -0.252672798979E+03    0.25415E-03    0.00000E+00 18544   0.859E-03 0.000E+00
CGA:   2    -0.252672989639E+03   -0.19066E-03   -0.19650E-03 18544   0.311E-03 0.149E-03
CGA:   3    -0.252673059616E+03   -0.69977E-04   -0.72098E-04 18544   0.950E-04 0.304E-04
CGA:   4    -0.252673067924E+03   -0.83084E-05   -0.13074E-04 18544   0.183E-04 0.347E-04
CGA:   5    -0.252673068697E+03   -0.77266E-06   -0.26854E-05 18544   0.803E-05 0.129E-04
CGA:   6    -0.252673069728E+03   -0.10313E-05   -0.13564E-05 18544   0.413E-05 0.410E-05
   6 F= -.25267307E+03 E0= -.25267307E+03  d E =-.477371E-03  mag=     4.0000
       N       E                     dE             d eps       ncg     rms          ort
SDA:   1    -0.252672972746E+03    0.95951E-04    0.00000E+00 18544   0.171E-03 0.000E+00
CGA:   2    -0.252673025447E+03   -0.52701E-04   -0.74975E-04 18544   0.255E-03-0.109E-03
CGA:   3    -0.252673050210E+03   -0.24764E-04   -0.28390E-04 18544   0.191E-04 0.271E-04
CGA:   4    -0.252673053924E+03   -0.37139E-05   -0.36815E-05 18544   0.526E-05-0.502E-06
CGA:   5    -0.252673055237E+03   -0.13130E-05   -0.13230E-05 18544   0.378E-05-0.436E-06
CGA:   6    -0.252673057868E+03   -0.26309E-05    0.67731E-06 18544   0.283E-05 0.120E-05
   7 F= -.25267306E+03 E0= -.25267306E+03  d E =-.465511E-03  mag=     4.0000
       N       E                     dE             d eps       ncg     rms          ort
SDA:   1    -0.252673059740E+03   -0.45023E-05    0.00000E+00 18544   0.555E-04 0.000E+00
CGA:   2    -0.252673064917E+03   -0.51772E-05   -0.76099E-05 18544   0.207E-04 0.245E-04
CGA:   3    -0.252673066413E+03   -0.14960E-05   -0.34620E-05 18544   0.972E-05 0.170E-04
CGA:   4    -0.252673067359E+03   -0.94604E-06   -0.14156E-05 18544   0.485E-05 0.587E-05
CGA:   5    -0.252673067293E+03    0.65502E-07   -0.45325E-06 18544   0.351E-05 0.405E-05
CGA:   6    -0.252673067184E+03    0.10912E-06   -0.29483E-06 18544   0.274E-05 0.308E-05
   8 F= -.25267307E+03 E0= -.25267307E+03  d E =-.474827E-03  mag=     4.0000
       N       E                     dE             d eps       ncg     rms          ort
SDA:   1    -0.252673051669E+03    0.15625E-04    0.00000E+00 18544   0.159E-04 0.000E+00
CGA:   2    -0.252673058293E+03   -0.66242E-05    0.52947E-04 18544   0.599E-05 0.143E-05
CGA:   3    -0.252673061218E+03   -0.29251E-05    0.59364E-05 18544   0.207E-05 0.107E-05
CGA:   4    -0.252673062656E+03   -0.14380E-05    0.53632E-06 18544   0.125E-05 0.829E-06
CGA:   5    -0.252673063368E+03   -0.71217E-06    0.31294E-04 18544   0.104E-05 0.106E-05
CGA:   6    -0.252673064004E+03   -0.63596E-06   -0.72273E-06 18544   0.391E-05-0.175E-06
   9 F= -.25267306E+03 E0= -.25267306E+03  d E =-.471647E-03  mag=     4.0000
       N       E                     dE             d eps       ncg     rms          ort
SDA:   1    -0.252673071369E+03   -0.80003E-05    0.00000E+00 18544   0.125E-04 0.000E+00
CGA:   2    -0.252673071305E+03    0.63161E-07   -0.97887E-06 18544   0.445E-05 0.705E-05
CGA:   3    -0.252673070952E+03    0.35383E-06   -0.24113E-06 18544   0.298E-05 0.361E-05
CGA:   4    -0.252673070673E+03    0.27908E-06   -0.14352E-06 18544   0.230E-05 0.260E-05
CGA:   5    -0.252673070447E+03    0.22540E-06   -0.10270E-06 18544   0.190E-05 0.208E-05
CGA:   6    -0.252673070260E+03    0.18740E-06   -0.80462E-07 18544   0.164E-05 0.176E-05
  10 F= -.25267307E+03 E0= -.25267307E+03  d E =-.477902E-03  mag=     4.0000
       N       E                     dE             d eps       ncg     rms          ort
SDA:   1    -0.252673066887E+03    0.35598E-05    0.00000E+00 18544   0.257E-05 0.000E+00
CGA:   2    -0.252673066962E+03   -0.74340E-07   -0.20300E-06 18544   0.901E-06 0.128E-05
CGA:   3    -0.252673067035E+03   -0.73574E-07   -0.12777E-06 18544   0.718E-06 0.678E-06
CGA:   4    -0.252673067394E+03   -0.35832E-06    0.13229E-06 18544   0.575E-06 0.487E-06
CGA:   5    -0.252673067389E+03    0.43929E-08   -0.44982E-07 18544   0.520E-06 0.535E-06
CGA:   6    -0.252673067448E+03   -0.59306E-07   -0.72636E-07 18544   0.501E-06 0.507E-06
  11 F= -.25267307E+03 E0= -.25267307E+03  d E =-.475091E-03  mag=     4.0000
       N       E                     dE             d eps       ncg     rms          ort
SDA:   1    -0.252673070313E+03   -0.29238E-05    0.00000E+00 18544   0.104E-05 0.000E+00
CGA:   2    -0.252673070222E+03    0.90713E-07   -0.37850E-07 18544   0.880E-06 0.953E-06
CGA:   3    -0.252673070147E+03    0.75010E-07   -0.31611E-07 18544   0.783E-06 0.828E-06
CGA:   4    -0.252673070084E+03    0.63648E-07   -0.27957E-07 18544   0.716E-06 0.747E-06
CGA:   5    -0.252673070029E+03    0.54853E-07   -0.25501E-07 18544   0.667E-06 0.690E-06
CGA:   6    -0.252673069981E+03    0.47952E-07   -0.23682E-07 18544   0.629E-06 0.646E-06
  12 F= -.25267307E+03 E0= -.25267307E+03  d E =-.477624E-03  mag=     4.0000
       N       E                     dE             d eps       ncg     rms          ort
SDA:   1    -0.252665545056E+03    0.75250E-02    0.00000E+00 18544   0.218E-01 0.000E+00
CGA:   2    -0.252670955627E+03   -0.54106E-02   -0.56253E-02 18544   0.109E-01-0.175E-02
CGA:   3    -0.252672668205E+03   -0.17126E-02   -0.17137E-02 18544   0.280E-02-0.369E-04
CGA:   4    -0.252673084364E+03   -0.41616E-03   -0.41489E-03 18544   0.658E-03 0.228E-03
CGA:   5    -0.252673188338E+03   -0.10397E-03   -0.10364E-03 18544   0.124E-03 0.146E-03
CGA:   6    -0.252673213960E+03   -0.25622E-04   -0.24943E-04 18544   0.388E-04 0.312E-04
CGA:   7    -0.252673139769E+03    0.74190E-04   -0.41129E-04 18544   0.567E-03-0.158E-03
CGA:   8    -0.252673224704E+03   -0.84934E-04   -0.86916E-04 18544   0.941E-04 0.180E-04
CGA:   9    -0.252673245636E+03   -0.20933E-04   -0.21449E-04 18544   0.154E-04 0.139E-04
CGA:  10    -0.252673250754E+03   -0.51177E-05   -0.51340E-05 18544   0.643E-05-0.475E-06
  13 F= -.25267325E+03 E0= -.25267325E+03  d E =-.180773E-03  mag=     4.0000
