       N       E                     dE             d eps       ncg     rms          ort
DAV:   1     0.136263531350E+04    0.13626E+04   -0.54206E+04 25984   0.190E+03
DAV:   2     0.610923360892E+02   -0.13015E+04   -0.11868E+04 25984   0.545E+02
DAV:   3    -0.129474620193E+03   -0.19057E+03   -0.18725E+03 25984   0.219E+02
DAV:   4    -0.136793675987E+03   -0.73191E+01   -0.72727E+01 25984   0.461E+01
DAV:   5    -0.136938546058E+03   -0.14487E+00   -0.14479E+00 25984   0.715E+00
SDA:   6    -0.809624646697E+02    0.55976E+02   -0.14479E+00 25984   0.154E+03 0.000E+00
CGA:   7    -0.100628942990E+03   -0.19666E+02   -0.20233E+02 25984   0.178E+02 0.552E+00
CGA:   8    -0.103569932803E+03   -0.29410E+01   -0.29487E+01 25984   0.513E+01 0.107E+00
CGA:   9    -0.104731377921E+03   -0.11614E+01   -0.11586E+01 25984   0.247E+01 0.702E-01
CGA:  10    -0.105322728545E+03   -0.59135E+00   -0.59142E+00 25984   0.107E+01-0.536E-02
CGA:  11    -0.105565267312E+03   -0.24254E+00   -0.24320E+00 25984   0.305E+00-0.229E-01
CGA:  12    -0.105631719970E+03   -0.66453E-01   -0.66684E-01 25984   0.856E-01-0.989E-02
CGA:  13    -0.105652417839E+03   -0.20698E-01   -0.20773E-01 25984   0.259E-01-0.156E-02
CGA:  14    -0.105659507915E+03   -0.70901E-02   -0.70399E-02 25984   0.105E-01 0.658E-03
CGA:  15    -0.105663167025E+03   -0.36591E-02   -0.35886E-02 25984   0.544E-02 0.534E-03
CGA:  16    -0.105665119571E+03   -0.19525E-02   -0.18746E-02 25984   0.281E-02 0.665E-03
CGA:  17    -0.105666264693E+03   -0.11451E-02   -0.10781E-02 25984   0.150E-02 0.533E-03
CGA:  18    -0.105667090300E+03   -0.82561E-03   -0.84329E-03 25984   0.121E-02-0.827E-04
CGA:  19    -0.105667620461E+03   -0.53016E-03   -0.73057E-03 25984   0.146E-02-0.513E-03
CGA:  20    -0.105667851719E+03   -0.23126E-03   -0.23082E-03 25984   0.878E-03 0.155E-04
CGA:  21    -0.105668019406E+03   -0.16769E-03   -0.17889E-03 25984   0.386E-03 0.193E-03
CGA:  22    -0.105668105294E+03   -0.85888E-04   -0.94000E-04 25984   0.187E-03 0.144E-03
CGA:  23    -0.105668160625E+03   -0.55331E-04   -0.57182E-04 25984   0.874E-04 0.610E-04
CGA:  24    -0.105668198718E+03   -0.38094E-04   -0.37752E-04 25984   0.615E-04 0.468E-05
CGA:  25    -0.105668220530E+03   -0.21812E-04   -0.21901E-04 25984   0.472E-04-0.155E-05
CGA:  26    -0.105668236687E+03   -0.16156E-04   -0.17608E-04 25984   0.394E-04-0.111E-04
CGA:  27    -0.105668027149E+03    0.20954E-03   -0.10845E-03 25984   0.486E-03-0.175E-03
CGA:  28    -0.105668168451E+03   -0.14130E-03   -0.15823E-03 25984   0.202E-03 0.129E-03
CGA:  29    -0.105667998948E+03    0.16950E-03   -0.31762E-04 25984   0.884E-03 0.165E-03
CGA:  30    -0.105667607801E+03    0.39115E-03   -0.13831E-03 25984   0.275E-02 0.479E-03
CGA:  31    -0.105666076231E+03    0.15316E-02   -0.39117E-03 25984   0.771E-02 0.126E-02
CGA:  32    -0.105642604534E+03    0.23472E-01   -0.67352E-03 25984   0.874E-01 0.302E-01
CGA:  33    -0.105614117664E+03    0.28487E-01   -0.12405E-01 25984   0.208E+00 0.426E-01
CGA:  34    -0.105340621322E+03    0.27350E+00   -0.24968E-01 25984   0.102E+01 0.487E+00
CGA:  35    -0.105335080952E+03    0.55404E-02   -0.18224E+00 25984   0.122E+01 0.388E+00
CGA:  36    -0.104994436304E+03    0.34064E+00   -0.21079E+00 25984   0.171E+01 0.116E+01
CGA:  37    -0.105210782100E+03   -0.21635E+00   -0.35017E+00 25984   0.125E+01 0.698E+00
CGA:  38    -0.105250536967E+03   -0.39755E-01   -0.27864E+00 25984   0.883E+00 0.747E+00
CGA:  39    -0.105384546087E+03   -0.13401E+00   -0.18374E+00 25984   0.543E+00 0.388E+00
CGA:  40    -0.105508096544E+03   -0.12355E+00   -0.15712E+00 25984   0.270E+00 0.232E+00
CGA:  41    -0.105549773249E+03   -0.41677E-01   -0.64738E-01 25984   0.171E+00 0.159E+00
CGA:  42    -0.105604607140E+03   -0.54834E-01   -0.54797E-01 25984   0.442E-01 0.159E-01
CGA:  43    -0.105634675793E+03   -0.30069E-01   -0.29208E-01 25984   0.184E-01 0.476E-02
CGA:  44    -0.105651364951E+03   -0.16689E-01   -0.16981E-01 25984   0.113E-01 0.189E-03
CGA:  45    -0.105654891550E+03   -0.35266E-02   -0.36533E-02 25984   0.728E-02 0.264E-02
CGA:  46    -0.105659666133E+03   -0.47746E-02   -0.45648E-02 25984   0.514E-02 0.154E-02
CGA:  47    -0.105662354088E+03   -0.26880E-02   -0.26365E-02 25984   0.404E-02 0.928E-03
CGA:  48    -0.105664003422E+03   -0.16493E-02   -0.16556E-02 25984   0.311E-02 0.375E-03
CGA:  49    -0.105664921528E+03   -0.91811E-03   -0.92299E-03 25984   0.243E-02 0.113E-03
CGA:  50    -0.105665512462E+03   -0.59093E-03   -0.58567E-03 25984   0.200E-02 0.107E-05
CGA:  51    -0.105665945113E+03   -0.43265E-03   -0.42143E-03 25984   0.172E-02-0.481E-04
CGA:  52    -0.105666288029E+03   -0.34292E-03   -0.32874E-03 25984   0.151E-02-0.665E-04
CGA:  53    -0.105666569946E+03   -0.28192E-03   -0.26709E-03 25984   0.133E-02-0.662E-04
CGA:  54    -0.105666805660E+03   -0.23571E-03   -0.22213E-03 25984   0.117E-02-0.550E-04
CGA:  55    -0.105667005518E+03   -0.19986E-03   -0.18859E-03 25984   0.104E-02-0.395E-04
CGA:  56    -0.105667176729E+03   -0.17121E-03   -0.16259E-03 25984   0.928E-03-0.235E-04
CGA:  57    -0.105667323423E+03   -0.14669E-03   -0.14065E-03 25984   0.822E-03-0.972E-05
CGA:  58    -0.105667447836E+03   -0.12441E-03   -0.12064E-03 25984   0.720E-03-0.469E-07
CGA:  59    -0.105667552394E+03   -0.10456E-03   -0.10250E-03 25984   0.626E-03 0.501E-05
CGA:  60    -0.105667640647E+03   -0.88253E-04   -0.87303E-04 25984   0.550E-03 0.660E-05
CGA:  61    -0.105667716423E+03   -0.75776E-04   -0.75464E-04 25984   0.491E-03 0.645E-05
CGA:  62    -0.105667782601E+03   -0.66178E-04   -0.66230E-04 25984   0.440E-03 0.574E-05
CGA:  63    -0.105667840753E+03   -0.58152E-04   -0.58424E-04 25984   0.395E-03 0.496E-05
CGA:  64    -0.105667891760E+03   -0.51006E-04   -0.51401E-04 25984   0.352E-03 0.426E-05
CGA:  65    -0.105667936502E+03   -0.44742E-04   -0.45185E-04 25984   0.315E-03 0.371E-05
CGA:  66    -0.105667975921E+03   -0.39419E-04   -0.39863E-04 25984   0.283E-03 0.333E-05
CGA:  67    -0.105668010755E+03   -0.34835E-04   -0.35256E-04 25984   0.254E-03 0.307E-05
CGA:  68    -0.105668041445E+03   -0.30690E-04   -0.31081E-04 25984   0.227E-03 0.289E-05
CGA:  69    -0.105668068319E+03   -0.26873E-04   -0.27236E-04 25984   0.201E-03 0.281E-05
CGA:  70    -0.105668091800E+03   -0.23481E-04   -0.23821E-04 25984   0.178E-03 0.285E-05
CGA:  71    -0.105668112427E+03   -0.20627E-04   -0.20950E-04 25984   0.158E-03 0.300E-05
SDA:  72    -0.105668130700E+03   -0.18273E-04   -0.18575E-04 25984   0.140E-03 0.314E-05
CGA:  73    -0.105668254625E+03   -0.12392E-03   -0.12299E-03 25984   0.607E-04 0.766E-06
CGA:  74    -0.105668278331E+03   -0.23706E-04   -0.23738E-04 25984   0.903E-05-0.279E-06
CGA:  75    -0.105668281164E+03   -0.28335E-05   -0.27861E-05 25984   0.196E-05 0.763E-06
   1 F= -.10566828E+03 E0= -.10566828E+03  d E =-.105668E+03  mag=     8.0000
       N       E                     dE             d eps       ncg     rms          ort
SDA:   1    -0.105653543472E+03    0.14735E-01    0.00000E+00 25984   0.397E-01 0.000E+00
CGA:   2    -0.105664162778E+03   -0.10619E-01   -0.10620E-01 25984   0.205E-01-0.941E-04
CGA:   3    -0.105667727024E+03   -0.35642E-02   -0.35713E-02 25984   0.376E-02 0.857E-04
CGA:   4    -0.105668388809E+03   -0.66178E-03   -0.65995E-03 25984   0.844E-03-0.237E-04
CGA:   5    -0.105668541944E+03   -0.15313E-03   -0.15419E-03 25984   0.228E-03 0.161E-04
CGA:   6    -0.105668587664E+03   -0.45720E-04   -0.45902E-04 25984   0.563E-04 0.375E-05
CGA:   7    -0.105668540459E+03    0.47205E-04   -0.54151E-04 25984   0.584E-03-0.144E-03
CGA:   8    -0.105668616799E+03   -0.76339E-04   -0.82190E-04 25984   0.641E-04 0.424E-04
CGA:   9    -0.105668626511E+03   -0.97121E-05   -0.11844E-04 25984   0.150E-04 0.215E-04
   2 F= -.10566863E+03 E0= -.10566863E+03  d E =-.345346E-03  mag=     8.0000
       N       E                     dE             d eps       ncg     rms          ort
SDA:   1    -0.105663611687E+03    0.50051E-02    0.00000E+00 25984   0.133E-01 0.000E+00
CGA:   2    -0.105667182875E+03   -0.35712E-02   -0.35716E-02 25984   0.682E-02-0.675E-04
CGA:   3    -0.105668345437E+03   -0.11626E-02   -0.11669E-02 25984   0.127E-02 0.472E-04
CGA:   4    -0.105668566310E+03   -0.22087E-03   -0.21998E-03 25984   0.305E-03-0.103E-04
CGA:   5    -0.105668618184E+03   -0.51874E-04   -0.52435E-04 25984   0.836E-04 0.685E-05
CGA:   6    -0.105668635115E+03   -0.16931E-04   -0.17067E-04 25984   0.207E-04 0.266E-05
CGA:   7    -0.105668646485E+03   -0.11370E-04    0.35381E-04 25984   0.862E-05 0.241E-05
CGA:   8    -0.105668652822E+03   -0.63373E-05    0.36398E-05 25984   0.405E-05 0.201E-05
   3 F= -.10566865E+03 E0= -.10566865E+03  d E =-.371658E-03  mag=     8.0000
       N       E                     dE             d eps       ncg     rms          ort
SDA:   1    -0.105664122592E+03    0.45239E-02    0.00000E+00 25984   0.113E-01 0.000E+00
CGA:   2    -0.105667882236E+03   -0.37596E-02   -0.37565E-02 25984   0.454E-02 0.407E-04
CGA:   3    -0.105668645541E+03   -0.76331E-03   -0.76220E-03 25984   0.871E-03-0.117E-04
CGA:   4    -0.105668793461E+03   -0.14792E-03   -0.14549E-03 25984   0.235E-03-0.268E-04
CGA:   5    -0.105668836675E+03   -0.43214E-04   -0.43000E-04 25984   0.557E-04-0.332E-05
CGA:   6    -0.105668844268E+03   -0.75930E-05   -0.84862E-05 25984   0.117E-04 0.927E-05
   4 F= -.10566884E+03 E0= -.10566884E+03  d E =-.191446E-03  mag=     8.0000
       N       E                     dE             d eps       ncg     rms          ort
SDA:   1    -0.105626635799E+03    0.42201E-01    0.00000E+00 25984   0.102E+00 0.000E+00
CGA:   2    -0.105660414104E+03   -0.33778E-01   -0.33760E-01 25984   0.411E-01 0.179E-03
CGA:   3    -0.105667286277E+03   -0.68722E-02   -0.68696E-02 25984   0.759E-02-0.304E-04
CGA:   4    -0.105668601322E+03   -0.13150E-02   -0.13084E-02 25984   0.192E-02-0.946E-04
CGA:   5    -0.105668971654E+03   -0.37033E-03   -0.37008E-03 25984   0.426E-03-0.604E-05
CGA:   6    -0.105669043280E+03   -0.71625E-04   -0.73839E-04 25984   0.989E-04 0.349E-04
CGA:   7    -0.105669067083E+03   -0.23804E-04   -0.23955E-04 25984   0.322E-04 0.149E-04
CGA:   8    -0.105669077762E+03   -0.10679E-04   -0.10502E-04 25984   0.181E-04 0.351E-05
CGA:   9    -0.105669083158E+03   -0.53963E-05   -0.52509E-05 25984   0.928E-05 0.581E-05
   5 F= -.10566908E+03 E0= -.10566908E+03  d E =-.430336E-03  mag=     8.0000
       N       E                     dE             d eps       ncg     rms          ort
SDA:   1    -0.105667618848E+03    0.14589E-02    0.00000E+00 25984   0.357E-02 0.000E+00
CGA:   2    -0.105668802412E+03   -0.11836E-02   -0.11873E-02 25984   0.155E-02-0.434E-04
CGA:   3    -0.105669042936E+03   -0.24052E-03   -0.24143E-03 25984   0.304E-03 0.981E-05
CGA:   4    -0.105669086816E+03   -0.43880E-04   -0.45688E-04 25984   0.639E-04 0.189E-04
CGA:   5    -0.105669100229E+03   -0.13413E-04   -0.13689E-04 25984   0.125E-04 0.718E-05
CGA:   6    -0.105669103802E+03   -0.35737E-05   -0.52810E-05 25984   0.212E-04-0.121E-04
   6 F= -.10566910E+03 E0= -.10566910E+03  d E =-.450980E-03  mag=     8.0000
       N       E                     dE             d eps       ncg     rms          ort
SDA:   1    -0.105668930217E+03    0.17001E-03    0.00000E+00 25984   0.424E-03 0.000E+00
CGA:   2    -0.105669067985E+03   -0.13777E-03   -0.13727E-03 25984   0.179E-03 0.580E-05
CGA:   3    -0.105669100052E+03   -0.32067E-04   -0.31897E-04 25984   0.351E-04-0.252E-05
CGA:   4    -0.105669106331E+03   -0.62787E-05   -0.59147E-05 25984   0.112E-04-0.530E-05
CGA:   5    -0.105669108134E+03   -0.18029E-05   -0.17703E-05 25984   0.263E-05-0.649E-06
CGA:   6    -0.105669108179E+03   -0.45674E-07   -0.22206E-06 25984   0.854E-06 0.122E-05
   7 F= -.10566911E+03 E0= -.10566911E+03  d E =-.455357E-03  mag=     8.0000
       N       E                     dE             d eps       ncg     rms          ort
SDA:   1    -0.105668950750E+03    0.15738E-03    0.00000E+00 25984   0.379E-03 0.000E+00
CGA:   2    -0.105669071985E+03   -0.12123E-03   -0.11990E-03 25984   0.144E-03 0.136E-04
CGA:   3    -0.105669098470E+03   -0.26485E-04   -0.26373E-04 25984   0.325E-04-0.240E-05
CGA:   4    -0.105669105161E+03   -0.66912E-05   -0.65601E-05 25984   0.134E-04-0.836E-05
CGA:   5    -0.105669106887E+03   -0.17258E-05   -0.17001E-05 25984   0.255E-05-0.523E-06
CGA:   6    -0.105669106878E+03    0.92232E-08   -0.18896E-06 25984   0.109E-05 0.141E-05
   8 F= -.10566911E+03 E0= -.10566911E+03  d E =-.454055E-03  mag=     8.0000
       N       E                     dE             d eps       ncg     rms          ort
SDA:   1    -0.105669068738E+03    0.38149E-04    0.00000E+00 25984   0.926E-04 0.000E+00
CGA:   2    -0.105669096005E+03   -0.27267E-04   -0.26528E-04 25984   0.315E-04 0.892E-05
CGA:   3    -0.105669102938E+03   -0.69334E-05   -0.69254E-05 25984   0.962E-05-0.107E-05
CGA:   4    -0.105669104976E+03   -0.20372E-05   -0.21708E-05 25984   0.707E-05-0.513E-05
CGA:   5    -0.105669105516E+03   -0.53999E-06   -0.64987E-06 25984   0.589E-06 0.940E-06
CGA:   6    -0.105669105506E+03    0.93969E-08   -0.47811E-07 25984   0.320E-06 0.436E-06
   9 F= -.10566911E+03 E0= -.10566911E+03  d E =-.452684E-03  mag=     8.0000
       N       E                     dE             d eps       ncg     rms          ort
SDA:   1    -0.105664044179E+03    0.50613E-02    0.00000E+00 25984   0.130E-01 0.000E+00
CGA:   2    -0.105667969997E+03   -0.39258E-02   -0.38977E-02 25984   0.559E-02 0.255E-03
CGA:   3    -0.105668945570E+03   -0.97557E-03   -0.97559E-03 25984   0.114E-02 0.611E-06
CGA:   4    -0.105669149561E+03   -0.20399E-03   -0.20345E-03 25984   0.281E-03-0.314E-04
CGA:   5    -0.105669201907E+03   -0.52346E-04   -0.52314E-04 25984   0.700E-04-0.132E-04
CGA:   6    -0.105669210309E+03   -0.84019E-05   -0.93109E-05 25984   0.144E-04 0.167E-04
  10 F= -.10566921E+03 E0= -.10566921E+03  d E =-.104802E-03  mag=     8.0000
