       N       E                     dE             d eps       ncg     rms          rms(c)
DAV:   1     0.754785280034E+03    0.75479E+03   -0.33031E+04100782   0.214E+03
DAV:   2     0.132976826230E+02   -0.74149E+03   -0.70114E+03103605   0.614E+02
DAV:   3    -0.786241419267E+02   -0.91922E+02   -0.90167E+02115509   0.216E+02
DAV:   4    -0.816164099835E+02   -0.29923E+01   -0.29415E+01110793   0.380E+01
DAV:   5    -0.816742011451E+02   -0.57791E-01   -0.57363E-01111903   0.564E+00    0.226E+01
DAV:   6    -0.641154081595E+02    0.17559E+02   -0.79965E+01117423   0.671E+01    0.282E+01
DAV:   7    -0.645115092868E+02   -0.39610E+00   -0.42244E+00101328   0.279E+01    0.157E+01
DAV:   8    -0.643635064560E+02    0.14800E+00   -0.77885E-01118245   0.116E+01    0.937E+00
DAV:   9    -0.644784114283E+02   -0.11490E+00   -0.51670E-01100746   0.884E+00    0.117E+00
DAV:  10    -0.644688674979E+02    0.95439E-02   -0.10230E-01109875   0.378E+00    0.472E-01
DAV:  11    -0.644688501050E+02    0.17393E-04   -0.14351E-02110784   0.103E+00    0.267E-01
DAV:  12    -0.644692999979E+02   -0.44989E-03   -0.76395E-04110061   0.281E-01    0.184E-01
DAV:  13    -0.644705200822E+02   -0.12201E-02   -0.15387E-03109359   0.364E-01    0.557E-02
DAV:  14    -0.644703235149E+02    0.19657E-03   -0.11961E-04 99660   0.920E-02    0.448E-02
DAV:  15    -0.644702424036E+02    0.81111E-04   -0.73508E-05102015   0.658E-02    0.116E-02
DAV:  16    -0.644701960941E+02    0.46310E-04   -0.56968E-06 50382   0.195E-02    0.660E-03
DAV:  17    -0.644702171526E+02   -0.21059E-04   -0.80550E-07 49962   0.105E-02    0.264E-03
DAV:  18    -0.644702307948E+02   -0.13642E-04   -0.39787E-07 49860   0.589E-03    0.197E-03
DAV:  19    -0.644702179987E+02    0.12796E-04   -0.11151E-07 49776   0.288E-03    0.987E-04
DAV:  20    -0.644702149185E+02    0.30803E-05   -0.15323E-07 49746   0.292E-03
   1 F= -.64470215E+02 E0= -.64470215E+02  d E =-.644702E+02  mag=    -0.0000
       N       E                     dE             d eps       ncg     rms          rms(c)
DAV:   1    -0.649727177968E+02   -0.50250E+00   -0.10995E+01103560   0.331E+01    0.594E+00
DAV:   2    -0.645229231689E+02    0.44979E+00   -0.15980E+00 99852   0.109E+01    0.354E+00
DAV:   3    -0.644925870742E+02    0.30336E-01   -0.11867E-01109056   0.288E+00    0.154E+00
DAV:   4    -0.644855015298E+02    0.70855E-02   -0.60645E-03101250   0.566E-01    0.807E-01
DAV:   5    -0.644840725605E+02    0.14290E-02   -0.42873E-03107652   0.487E-01    0.144E-01
DAV:   6    -0.644816284271E+02    0.24441E-02   -0.59952E-04112224   0.197E-01    0.625E-02
DAV:   7    -0.644820636443E+02   -0.43522E-03   -0.16551E-04 93420   0.803E-02    0.208E-02
DAV:   8    -0.644820343171E+02    0.29327E-04   -0.83112E-06 59580   0.280E-02    0.118E-02
DAV:   9    -0.644819687577E+02    0.65559E-04   -0.55273E-06 50196   0.201E-02    0.599E-03
DAV:  10    -0.644819705880E+02   -0.18303E-05   -0.18148E-06 49980   0.129E-02
   2 F= -.64481971E+02 E0= -.64481971E+02  d E =-.117557E-01  mag=    -0.0000
       N       E                     dE             d eps       ncg     rms          rms(c)
DAV:   1    -0.645022644437E+02   -0.20296E-01   -0.44911E-01104022   0.678E+00    0.120E+00
DAV:   2    -0.644819562991E+02    0.20308E-01   -0.61504E-02 99540   0.217E+00    0.730E-01
DAV:   3    -0.644831062373E+02   -0.11499E-02   -0.47470E-03109350   0.604E-01    0.314E-01
DAV:   4    -0.644829599919E+02    0.14625E-03   -0.26805E-04102354   0.119E-01    0.173E-01
DAV:   5    -0.644824480972E+02    0.51189E-03   -0.17182E-04107580   0.100E-01    0.314E-02
DAV:   6    -0.644829295094E+02   -0.48141E-03   -0.23990E-05 83184   0.423E-02    0.124E-02
DAV:   7    -0.644828522541E+02    0.77255E-04   -0.70168E-06 50112   0.191E-02    0.418E-03
DAV:   8    -0.644828627671E+02   -0.10513E-04   -0.55587E-07 49704   0.757E-03    0.243E-03
DAV:   9    -0.644828696828E+02   -0.69157E-05   -0.25671E-07 49632   0.485E-03
   3 F= -.64482870E+02 E0= -.64482870E+02  d E =-.126548E-01  mag=    -0.0000
       N       E                     dE             d eps       ncg     rms          rms(c)
DAV:   1    -0.644830653254E+02   -0.20256E-03   -0.40985E-03103722   0.647E-01    0.115E-01
DAV:   2    -0.644826744133E+02    0.39091E-03   -0.56633E-04 99492   0.208E-01    0.694E-02
DAV:   3    -0.644828572733E+02   -0.18286E-03   -0.41355E-05 80478   0.574E-02    0.291E-02
DAV:   4    -0.644828687475E+02   -0.11474E-04   -0.53574E-06 49704   0.169E-02    0.169E-02
DAV:   5    -0.644828223828E+02    0.46365E-04   -0.20424E-06 49632   0.125E-02    0.327E-03
DAV:   6    -0.644828733690E+02   -0.50986E-04   -0.47184E-07 49632   0.629E-03    0.140E-03
DAV:   7    -0.644828721288E+02    0.12401E-05   -0.10372E-07 49632   0.277E-03
   4 F= -.64482872E+02 E0= -.64482872E+02  d E =-.126572E-01  mag=    -0.0000
       N       E                     dE             d eps       ncg     rms          rms(c)
DAV:   1    -0.644869042150E+02   -0.40308E-02   -0.37597E-01 99264   0.478E+00    0.518E-01
DAV:   2    -0.644845712362E+02    0.23330E-02   -0.11737E-02106020   0.967E-01    0.320E-01
DAV:   3    -0.644835832910E+02    0.98795E-03   -0.51498E-03110124   0.380E-01    0.189E-01
DAV:   4    -0.644838338889E+02   -0.25060E-03   -0.71065E-04109872   0.147E-01    0.678E-02
DAV:   5    -0.644838598463E+02   -0.25957E-04   -0.34474E-05 88728   0.594E-02    0.392E-02
DAV:   6    -0.644839303840E+02   -0.70538E-04   -0.58003E-05 76560   0.550E-02    0.143E-02
DAV:   7    -0.644838975425E+02    0.32841E-04   -0.48941E-06 50034   0.225E-02    0.554E-03
DAV:   8    -0.644838979874E+02   -0.44489E-06   -0.11885E-06 49632   0.989E-03
   5 F= -.64483898E+02 E0= -.64483898E+02  d E =-.102586E-02  mag=     0.0000
