       N       E                     dE             d eps       ncg     rms          ort
DAV:   1     0.639882428381E+03    0.63988E+03   -0.29258E+04 24064   0.173E+03
DAV:   2    -0.279669454775E+01   -0.64268E+03   -0.62393E+03 24064   0.518E+02
DAV:   3    -0.770126328063E+02   -0.74216E+02   -0.72425E+02 24064   0.171E+02
DAV:   4    -0.794005945202E+02   -0.23880E+01   -0.23834E+01 24064   0.352E+01
DAV:   5    -0.794572525589E+02   -0.56658E-01   -0.56646E-01 24064   0.557E+00
SDA:   6    -0.641652630050E+02    0.15292E+02   -0.56646E-01 24064   0.483E+01 0.000E+00
CGA:   7    -0.648472992421E+02   -0.68204E+00   -0.68436E+00 24064   0.458E+00 0.542E-02
CGA:   8    -0.649408565806E+02   -0.93557E-01   -0.93546E-01 24064   0.130E+00 0.134E-02
CGA:   9    -0.649715343743E+02   -0.30678E-01   -0.30670E-01 24064   0.365E-01 0.220E-03
CGA:  10    -0.649803669206E+02   -0.88325E-02   -0.88290E-02 24064   0.903E-02 0.566E-04
CGA:  11    -0.649834254290E+02   -0.30585E-02   -0.30564E-02 24064   0.360E-02 0.937E-05
CGA:  12    -0.649846003153E+02   -0.11749E-02   -0.11806E-02 24064   0.149E-02-0.486E-04
CGA:  13    -0.649850068460E+02   -0.40653E-03   -0.40616E-03 24064   0.323E-03 0.482E-05
CGA:  14    -0.649851076910E+02   -0.10085E-03   -0.10329E-03 24064   0.823E-04-0.241E-04
CGA:  15    -0.649851344658E+02   -0.26775E-04   -0.30453E-04 24064   0.355E-04-0.207E-04
CGA:  16    -0.649851426448E+02   -0.81790E-05   -0.81546E-05 24064   0.917E-05 0.281E-06
   1 F= -.64985143E+02 E0= -.64985143E+02  d E =-.649851E+02  mag=     6.0000
