       N       E                     dE             d eps       ncg     rms          rms(c)
DAV:   1     0.612886819877E+03    0.61289E+03   -0.29635E+04 93063   0.170E+03
DAV:   2    -0.138816119445E+02   -0.62677E+03   -0.58762E+03100320   0.499E+02
DAV:   3    -0.721713978615E+02   -0.58290E+02   -0.57401E+02106821   0.162E+02
DAV:   4    -0.734705854266E+02   -0.12992E+01   -0.12903E+01111540   0.244E+01
DAV:   5    -0.735103351599E+02   -0.39750E-01   -0.39497E-01121050   0.398E+00    0.493E+00
DAV:   6    -0.587016620331E+02    0.14809E+02   -0.81216E+00105492   0.204E+01    0.650E+00
DAV:   7    -0.586923181827E+02    0.93439E-02   -0.25429E-01111267   0.344E+00    0.251E+00
DAV:   8    -0.586620500610E+02    0.30268E-01   -0.41017E-02107256   0.145E+00    0.176E+00
DAV:   9    -0.586491836434E+02    0.12866E-01   -0.13928E-02111258   0.876E-01    0.115E+00
DAV:  10    -0.586452301861E+02    0.39535E-02   -0.27237E-03112986   0.374E-01    0.926E-01
DAV:  11    -0.586427032291E+02    0.25270E-02   -0.15773E-03109017   0.290E-01    0.740E-01
DAV:  12    -0.586399654418E+02    0.27378E-02   -0.36323E-03108003   0.441E-01    0.455E-01
DAV:  13    -0.586393013313E+02    0.66411E-03   -0.56327E-04118176   0.171E-01    0.348E-01
DAV:  14    -0.586386194491E+02    0.68188E-03   -0.10923E-03106254   0.243E-01    0.193E-01
DAV:  15    -0.586384006627E+02    0.21879E-03   -0.44727E-04115644   0.154E-01    0.948E-02
DAV:  16    -0.586383354425E+02    0.65220E-04   -0.27069E-04106503   0.120E-01    0.180E-02
DAV:  17    -0.586383322612E+02    0.31813E-05   -0.87711E-06 61938   0.239E-02
   1 F= -.58638332E+02 E0= -.58638332E+02  d E =-.586383E+02  mag=    -0.0000
