       N       E                     dE             d eps       ncg     rms          rms(c)
DAV:   1     0.727274915673E+03    0.72727E+03   -0.36804E+04111900   0.159E+03
DAV:   2    -0.253396230141E+02   -0.75261E+03   -0.71477E+03120204   0.468E+02
DAV:   3    -0.916507357723E+02   -0.66311E+02   -0.64968E+02127158   0.151E+02
DAV:   4    -0.930319510633E+02   -0.13812E+01   -0.13791E+01123948   0.241E+01
DAV:   5    -0.930596718772E+02   -0.27721E-01   -0.27718E-01129762   0.343E+00    0.538E+00
DAV:   6    -0.728938465301E+02    0.20166E+02   -0.89348E+00112950   0.184E+01    0.460E+00
DAV:   7    -0.727965628208E+02    0.97284E-01   -0.23761E-01143940   0.376E+00    0.233E+00
DAV:   8    -0.727695300387E+02    0.27033E-01   -0.37976E-02119622   0.114E+00    0.170E+00
DAV:   9    -0.727628788897E+02    0.66511E-02   -0.46979E-03125070   0.460E-01    0.128E+00
DAV:  10    -0.727581540733E+02    0.47248E-02   -0.27816E-03119262   0.311E-01    0.103E+00
DAV:  11    -0.727538826360E+02    0.42714E-02   -0.40246E-03122436   0.378E-01    0.713E-01
DAV:  12    -0.727530449613E+02    0.83767E-03   -0.31790E-04119838   0.110E-01    0.625E-01
DAV:  13    -0.727508507024E+02    0.21943E-02   -0.36811E-03120930   0.358E-01    0.320E-01
DAV:  14    -0.727501969468E+02    0.65376E-03   -0.19584E-03120924   0.266E-01    0.834E-02
DAV:  15    -0.727501470612E+02    0.49886E-04   -0.14256E-04122406   0.724E-02    0.225E-02
DAV:  16    -0.727501430957E+02    0.39655E-05   -0.61348E-06 63936   0.155E-02
   1 F= -.72750143E+02 E0= -.72750143E+02  d E =-.727501E+02  mag=    -0.0000
