       N       E                     dE             d eps       ncg     rms          ort
DAV:   1     0.279697059945E+04    0.27970E+04   -0.10466E+05 25840   0.196E+03
DAV:   2     0.206392856399E+03   -0.25906E+04   -0.23982E+04 25840   0.531E+02
DAV:   3    -0.229608114813E+03   -0.43600E+03   -0.40227E+03 25840   0.222E+02
DAV:   4    -0.253237929327E+03   -0.23630E+02   -0.23355E+02 25840   0.547E+01
DAV:   5    -0.253771371098E+03   -0.53344E+00   -0.53201E+00 25840   0.945E+00
SDA:   6    -0.203233336838E+03    0.50538E+02   -0.53201E+00 25840   0.107E+02 0.000E+00
CGA:   7    -0.205117193504E+03   -0.18839E+01   -0.18857E+01 25840   0.144E+01 0.365E-01
CGA:   8    -0.205393925769E+03   -0.27673E+00   -0.27682E+00 25840   0.595E+00 0.119E-01
CGA:   9    -0.205520917146E+03   -0.12699E+00   -0.12689E+00 25840   0.214E+00 0.755E-02
CGA:  10    -0.205567654332E+03   -0.46737E-01   -0.46664E-01 25840   0.101E+00 0.423E-02
CGA:  11    -0.205592215031E+03   -0.24561E-01   -0.24427E-01 25840   0.376E-01 0.338E-02
CGA:  12    -0.205602316134E+03   -0.10101E-01   -0.10077E-01 25840   0.158E-01 0.380E-03
CGA:  13    -0.205606064045E+03   -0.37479E-02   -0.37647E-02 25840   0.410E-02-0.534E-03
CGA:  14    -0.205607027821E+03   -0.96378E-03   -0.95802E-03 25840   0.966E-03 0.160E-03
CGA:  15    -0.205607248480E+03   -0.22066E-03   -0.21859E-03 25840   0.279E-03 0.214E-03
CGA:  16    -0.205607328966E+03   -0.80486E-04   -0.78225E-04 25840   0.101E-03 0.105E-03
CGA:  17    -0.205607361210E+03   -0.32244E-04   -0.31457E-04 25840   0.436E-04 0.495E-04
CGA:  18    -0.205607375921E+03   -0.14711E-04   -0.14409E-04 25840   0.175E-04 0.259E-04
CGA:  19    -0.205607356203E+03    0.19718E-04   -0.12046E-04 25840   0.176E-03-0.372E-04
CGA:  20    -0.205607389236E+03   -0.33033E-04   -0.35681E-04 25840   0.791E-05 0.145E-04
CGA:  21    -0.205607388308E+03    0.92801E-06   -0.78487E-06 25840   0.406E-05 0.603E-05
   1 F= -.20560739E+03 E0= -.20560739E+03  d E =-.205607E+03  mag=    20.0000
