       N       E                     dE             d eps       ncg     rms          rms(c)
DAV:   1     0.764544122027E+03    0.76454E+03   -0.38390E+04139792   0.178E+03
DAV:   2    -0.230195335973E+02   -0.78756E+03   -0.73339E+03159920   0.516E+02
DAV:   3    -0.905930528982E+02   -0.67574E+02   -0.66366E+02154720   0.164E+02
DAV:   4    -0.921266209658E+02   -0.15336E+01   -0.15198E+01172296   0.247E+01
DAV:   5    -0.921729336244E+02   -0.46313E-01   -0.46127E-01176792   0.380E+00    0.511E+00
DAV:   6    -0.725549166975E+02    0.19618E+02   -0.93989E+00143608   0.188E+01    0.619E+00
DAV:   7    -0.724829144892E+02    0.72002E-01   -0.19868E-01161320   0.352E+00    0.243E+00
DAV:   8    -0.724530849624E+02    0.29830E-01   -0.48685E-02146720   0.130E+00    0.174E+00
DAV:   9    -0.724446735478E+02    0.84114E-02   -0.62773E-03158368   0.512E-01    0.126E+00
DAV:  10    -0.724398905180E+02    0.47830E-02   -0.31635E-03146288   0.346E-01    0.100E+00
DAV:  11    -0.724358505510E+02    0.40400E-02   -0.40371E-03148048   0.390E-01    0.695E-01
DAV:  12    -0.724344868673E+02    0.13637E-02   -0.94411E-04148016   0.188E-01    0.550E-01
DAV:  13    -0.724327165672E+02    0.17703E-02   -0.38562E-03139584   0.384E-01    0.251E-01
DAV:  14    -0.724324554311E+02    0.26114E-03   -0.49954E-04154936   0.138E-01    0.144E-01
DAV:  15    -0.724323530638E+02    0.10237E-03   -0.29336E-04139544   0.104E-01    0.611E-02
DAV:  16    -0.724323501460E+02    0.29178E-05   -0.11465E-04153608   0.662E-02    0.884E-03
DAV:  17    -0.724323528689E+02   -0.27229E-05   -0.26345E-06 70944   0.110E-02
   1 F= -.72432353E+02 E0= -.72432353E+02  d E =-.724324E+02  mag=    -0.0000
