       N       E                     dE             d eps       ncg     rms          rms(c)
DAV:   1     0.885546920635E+03    0.88555E+03   -0.44849E+04 89496   0.168E+03
DAV:   2    -0.265645883352E+02   -0.91211E+03   -0.84786E+03 99568   0.493E+02
DAV:   3    -0.109331615444E+03   -0.82767E+02   -0.78941E+02 96168   0.163E+02
DAV:   4    -0.111456746380E+03   -0.21251E+01   -0.21174E+01 96368   0.292E+01
DAV:   5    -0.111517085712E+03   -0.60339E-01   -0.60333E-01 99912   0.458E+00    0.530E+00
DAV:   6    -0.876237282096E+02    0.23893E+02   -0.95443E+00 88928   0.170E+01    0.386E+00
DAV:   7    -0.875133408576E+02    0.11039E+00   -0.31321E-01126608   0.504E+00    0.241E+00
DAV:   8    -0.874909026702E+02    0.22438E-01   -0.34436E-02 87336   0.138E+00    0.163E+00
DAV:   9    -0.874820618721E+02    0.88408E-02   -0.87422E-03 94160   0.507E-01    0.128E+00
DAV:  10    -0.874782433035E+02    0.38186E-02   -0.25555E-03 88368   0.290E-01    0.102E+00
DAV:  11    -0.874744546179E+02    0.37887E-02   -0.40608E-03 93208   0.338E-01    0.721E-01
DAV:  12    -0.874736231103E+02    0.83151E-03   -0.43667E-04 93120   0.118E-01    0.619E-01
DAV:  13    -0.874721108729E+02    0.15122E-02   -0.28893E-03 89056   0.287E-01    0.356E-01
DAV:  14    -0.874717380916E+02    0.37278E-03   -0.10437E-03 93312   0.176E-01    0.191E-01
DAV:  15    -0.874717150967E+02    0.22995E-04   -0.45089E-04 89240   0.113E-01    0.855E-02
DAV:  16    -0.874717893132E+02   -0.74217E-04   -0.14969E-04 92696   0.662E-02    0.208E-02
DAV:  17    -0.874718092374E+02   -0.19924E-04   -0.90821E-06 43392   0.173E-02    0.437E-03
DAV:  18    -0.874718101265E+02   -0.88910E-06   -0.11620E-06 43392   0.990E-03
   1 F= -.87471810E+02 E0= -.87471810E+02  d E =-.874718E+02  mag=     0.0000
