       N       E                     dE             d eps       ncg     rms          rms(c)
DAV:   1     0.555008589733E+04    0.55501E+04   -0.24324E+05 73496   0.164E+03
DAV:   2     0.162819553794E+03   -0.53873E+04   -0.49756E+04 76340   0.483E+02
DAV:   3    -0.632741611679E+03   -0.79556E+03   -0.73503E+03 77972   0.192E+02
DAV:   4    -0.671102327824E+03   -0.38361E+02   -0.37919E+02 77872   0.432E+01
DAV:   5    -0.672097142630E+03   -0.99481E+00   -0.99310E+00 83884   0.737E+00    0.107E+01
DAV:   6    -0.537348149277E+03    0.13475E+03   -0.50398E+01 74392   0.148E+01    0.781E+00
DAV:   7    -0.536546187881E+03    0.80196E+00   -0.22337E+00102784   0.514E+00    0.499E+00
DAV:   8    -0.536466673589E+03    0.79514E-01   -0.18400E-01 73388   0.126E+00    0.334E+00
DAV:   9    -0.536413937208E+03    0.52736E-01   -0.49794E-02 79248   0.491E-01    0.261E+00
DAV:  10    -0.536397131513E+03    0.16806E-01   -0.78170E-03 73816   0.205E-01    0.216E+00
DAV:  11    -0.536373603685E+03    0.23528E-01   -0.16654E-02 76524   0.262E-01    0.162E+00
DAV:  12    -0.536357431961E+03    0.16172E-01   -0.15769E-02 76248   0.257E-01    0.104E+00
DAV:  13    -0.536351871224E+03    0.55607E-02   -0.38047E-03 78352   0.126E-01    0.785E-01
DAV:  14    -0.536347103281E+03    0.47679E-02   -0.52317E-03 74956   0.147E-01    0.485E-01
DAV:  15    -0.536344245820E+03    0.28575E-02   -0.74186E-03 76500   0.176E-01    0.105E-01
DAV:  16    -0.536344079559E+03    0.16626E-03   -0.30674E-04 85524   0.381E-02    0.371E-02
DAV:  17    -0.536344053448E+03    0.26110E-04   -0.16395E-05 38452   0.892E-03    0.196E-02
DAV:  18    -0.536344040498E+03    0.12950E-04   -0.96122E-06 37612   0.688E-03    0.111E-02
DAV:  19    -0.536344035904E+03    0.45940E-05   -0.24905E-06 37480   0.412E-03
   1 F= -.53634404E+03 E0= -.53634404E+03  d E =-.536344E+03  mag=     0.0000
