       N       E                     dE             d eps       ncg     rms          rms(c)
DAV:   1     0.705373469174E+03    0.70537E+03   -0.31278E+04100551   0.186E+03
DAV:   2     0.324723634328E+01   -0.70213E+03   -0.65467E+03107376   0.547E+02
DAV:   3    -0.713237980478E+02   -0.74571E+02   -0.73723E+02110334   0.189E+02
DAV:   4    -0.729644165606E+02   -0.16406E+01   -0.16352E+01113904   0.300E+01
DAV:   5    -0.729932143123E+02   -0.28798E-01   -0.28793E-01107802   0.437E+00    0.193E+01
DAV:   6    -0.572796630190E+02    0.15714E+02   -0.19373E+01122658   0.394E+01    0.184E+01
DAV:   7    -0.579110366105E+02   -0.63137E+00   -0.38659E+00111942   0.129E+01    0.125E+01
DAV:   8    -0.578817436625E+02    0.29293E-01   -0.79928E-01115164   0.798E+00    0.647E+00
DAV:   9    -0.582433120005E+02   -0.36157E+00   -0.13143E-01114360   0.448E+00    0.103E+00
DAV:  10    -0.583331622186E+02   -0.89850E-01   -0.32621E-02109137   0.275E+00    0.258E-01
DAV:  11    -0.583368635790E+02   -0.37014E-02   -0.13812E-02112533   0.711E-01    0.135E-01
DAV:  12    -0.583369538949E+02   -0.90316E-04   -0.64919E-04107625   0.218E-01    0.646E-02
DAV:  13    -0.583371443782E+02   -0.19048E-03   -0.34087E-04112473   0.164E-01    0.303E-02
DAV:  14    -0.583371647890E+02   -0.20411E-04   -0.34038E-05 94980   0.515E-02    0.236E-02
DAV:  15    -0.583371559981E+02    0.87909E-05   -0.20268E-05 69798   0.324E-02
   1 F= -.58337156E+02 E0= -.58337156E+02  d E =-.583372E+02  mag=    -0.0000
       N       E                     dE             d eps       ncg     rms          rms(c)
DAV:   1    -0.583809920267E+02   -0.43827E-01   -0.10574E+00107706   0.993E+00    0.181E+00
DAV:   2    -0.583403854928E+02    0.40607E-01   -0.12352E-01108300   0.265E+00    0.102E+00
DAV:   3    -0.583390076533E+02    0.13778E-02   -0.13288E-02112878   0.120E+00    0.430E-01
DAV:   4    -0.583383836997E+02    0.62395E-03   -0.98623E-04114771   0.294E-01    0.297E-01
DAV:   5    -0.583381874740E+02    0.19623E-03   -0.18289E-04108450   0.116E-01    0.894E-02
DAV:   6    -0.583382061663E+02   -0.18692E-04   -0.19819E-05 91794   0.409E-02    0.114E-02
DAV:   7    -0.583382078752E+02   -0.17089E-05   -0.30027E-06 55140   0.163E-02
   2 F= -.58338208E+02 E0= -.58338208E+02  d E =-.105188E-02  mag=     0.0000
