       N       E                     dE             d eps       ncg     rms          rms(c)
DAV:   1     0.174638568731E+04    0.17464E+04   -0.78423E+04128672   0.186E+03
DAV:   2     0.191022683721E+02   -0.17273E+04   -0.16019E+04132516   0.547E+02
DAV:   3    -0.185153794201E+03   -0.20426E+03   -0.19607E+03130932   0.200E+02
DAV:   4    -0.191805591534E+03   -0.66518E+01   -0.66223E+01129368   0.366E+01
DAV:   5    -0.191896182441E+03   -0.90591E-01   -0.90519E-01134300   0.457E+00    0.729E+00
DAV:   6    -0.155022389010E+03    0.36874E+02   -0.14794E+01127412   0.164E+01    0.928E+00
DAV:   7    -0.154902014970E+03    0.12037E+00   -0.27991E-01128432   0.333E+00    0.430E+00
DAV:   8    -0.154836975998E+03    0.65039E-01   -0.12234E-01127820   0.151E+00    0.218E+00
DAV:   9    -0.154827410745E+03    0.95653E-02   -0.47157E-03128284   0.305E-01    0.195E+00
DAV:  10    -0.154813214220E+03    0.14197E-01   -0.11714E-02127632   0.485E-01    0.141E+00
DAV:  11    -0.154805996733E+03    0.72175E-02   -0.63876E-03128060   0.353E-01    0.101E+00
DAV:  12    -0.154802817855E+03    0.31789E-02   -0.19548E-03127728   0.196E-01    0.783E-01
DAV:  13    -0.154801455312E+03    0.13625E-02   -0.62154E-04127964   0.110E-01    0.652E-01
DAV:  14    -0.154799292545E+03    0.21628E-02   -0.26810E-03127424   0.232E-01    0.366E-01
DAV:  15    -0.154798267619E+03    0.10249E-02   -0.22303E-03127680   0.210E-01    0.114E-01
DAV:  16    -0.154798112721E+03    0.15490E-03   -0.23881E-04128220   0.690E-02    0.375E-02
DAV:  17    -0.154798082576E+03    0.30145E-04   -0.35775E-06 68648   0.953E-03    0.286E-02
DAV:  18    -0.154798067513E+03    0.15062E-04   -0.38106E-06 67340   0.965E-03    0.200E-02
DAV:  19    -0.154798056535E+03    0.10978E-04   -0.47425E-06 66804   0.104E-02    0.509E-03
DAV:  20    -0.154798039868E+03    0.16667E-04   -0.85602E-07 66108   0.471E-03    0.234E-03
DAV:  21    -0.154798034844E+03    0.50236E-05   -0.23643E-07 65688   0.285E-03
   1 F= -.15479803E+03 E0= -.15479803E+03  d E =-.154798E+03  mag=     0.0000
