       N       E                     dE             d eps       ncg     rms          rms(c)
DAV:   1     0.615244285972E+03    0.61524E+03   -0.39018E+04106560   0.167E+03
DAV:   2    -0.626401088724E+02   -0.67788E+03   -0.67332E+03133040   0.452E+02
DAV:   3    -0.979787316167E+02   -0.35339E+02   -0.34958E+02109320   0.115E+02
DAV:   4    -0.985153129614E+02   -0.53658E+00   -0.53647E+00150560   0.161E+01
DAV:   5    -0.985225286434E+02   -0.72157E-02   -0.72157E-02110740   0.167E+00    0.448E+00
DAV:   6    -0.793997522249E+02    0.19123E+02   -0.85960E+00142520   0.176E+01    0.401E+00
DAV:   7    -0.793303974463E+02    0.69355E-01   -0.21825E-01129460   0.351E+00    0.196E+00
DAV:   8    -0.793027251840E+02    0.27672E-01   -0.38718E-02110900   0.107E+00    0.140E+00
DAV:   9    -0.792980179098E+02    0.47073E-02   -0.39769E-03134120   0.415E-01    0.107E+00
DAV:  10    -0.792940810628E+02    0.39368E-02   -0.32950E-03124900   0.336E-01    0.827E-01
DAV:  11    -0.792910563568E+02    0.30247E-02   -0.37547E-03134180   0.358E-01    0.565E-01
DAV:  12    -0.792903916751E+02    0.66468E-03   -0.28868E-04124240   0.999E-02    0.495E-01
DAV:  13    -0.792891537648E+02    0.12379E-02   -0.35932E-03123340   0.344E-01    0.239E-01
DAV:  14    -0.792890057517E+02    0.14801E-03   -0.96894E-04134100   0.176E-01    0.111E-01
DAV:  15    -0.792889949897E+02    0.10762E-04   -0.60374E-05120440   0.409E-02    0.843E-02
DAV:  16    -0.792890307082E+02   -0.35718E-04   -0.38045E-04101600   0.522E-02    0.693E-02
DAV:  17    -0.792891315525E+02   -0.10084E-03   -0.17818E-03148280   0.109E-01    0.473E-02
DAV:  18    -0.792891838039E+02   -0.52251E-04   -0.27386E-04121840   0.434E-02    0.413E-02
DAV:  19    -0.792892962834E+02   -0.11248E-03   -0.41312E-03143820   0.154E-01    0.531E-02
DAV:  20    -0.792894517540E+02   -0.15547E-03   -0.55393E-03142580   0.177E-01    0.458E-02
DAV:  21    -0.792896805992E+02   -0.22885E-03   -0.31841E-03149020   0.153E-01    0.238E-02
DAV:  22    -0.792898793756E+02   -0.19878E-03   -0.23227E-03148520   0.124E-01    0.446E-02
DAV:  23    -0.792898224931E+02    0.56883E-04   -0.11739E-04117360   0.518E-02    0.545E-02
DAV:  24    -0.792899285311E+02   -0.10604E-03   -0.47017E-04140880   0.614E-02    0.387E-02
DAV:  25    -0.792898660383E+02    0.62493E-04   -0.38740E-05 68380   0.275E-02    0.273E-02
DAV:  26    -0.792898766282E+02   -0.10590E-04   -0.26138E-05 55060   0.183E-02    0.233E-02
DAV:  27    -0.792898992586E+02   -0.22630E-04   -0.32815E-05 68620   0.142E-02    0.228E-02
DAV:  28    -0.792899034994E+02   -0.42408E-05   -0.16868E-05 53580   0.109E-02
   1 F= -.79289903E+02 E0= -.79289903E+02  d E =-.792899E+02  mag=     0.0000
       N       E                     dE             d eps       ncg     rms          rms(c)
DAV:   1    -0.792936499831E+02   -0.37507E-02   -0.24080E-01108440   0.365E+00    0.546E-01
DAV:   2    -0.792901601634E+02    0.34898E-02   -0.14391E-02107960   0.754E-01    0.225E-01
DAV:   3    -0.792903330816E+02   -0.17292E-03   -0.16572E-03122960   0.430E-01    0.710E-02
DAV:   4    -0.792899029034E+02    0.43018E-03   -0.80913E-05143020   0.643E-02    0.382E-02
DAV:   5    -0.792901735734E+02   -0.27067E-03   -0.21017E-05 61360   0.298E-02    0.215E-02
DAV:   6    -0.792900483802E+02    0.12519E-03   -0.26477E-05 56320   0.246E-02    0.984E-03
DAV:   7    -0.792900719223E+02   -0.23542E-04   -0.61531E-06 62240   0.115E-02    0.871E-03
DAV:   8    -0.792900750572E+02   -0.31349E-05   -0.13545E-05 53480   0.115E-02
   2 F= -.79290075E+02 E0= -.79290075E+02  d E =-.171558E-03  mag=     0.0000
       N       E                     dE             d eps       ncg     rms          rms(c)
DAV:   1    -0.792905744168E+02   -0.50249E-03   -0.32465E-02108400   0.134E+00    0.194E-01
DAV:   2    -0.792902721670E+02    0.30225E-03   -0.18363E-03108320   0.272E-01    0.794E-02
DAV:   3    -0.792900238092E+02    0.24836E-03   -0.21606E-04118780   0.153E-01    0.260E-02
DAV:   4    -0.792901813252E+02   -0.15752E-03   -0.12891E-05 88620   0.238E-02    0.149E-02
DAV:   5    -0.792900952658E+02    0.86059E-04   -0.81062E-06 57520   0.156E-02    0.971E-03
DAV:   6    -0.792901467209E+02   -0.51455E-04   -0.11433E-05 54100   0.126E-02    0.653E-03
DAV:   7    -0.792901521361E+02   -0.54153E-05   -0.36781E-06 53360   0.698E-03
   3 F= -.79290152E+02 E0= -.79290152E+02  d E =-.248637E-03  mag=     0.0000
       N       E                     dE             d eps       ncg     rms          rms(c)
DAV:   1    -0.792901836617E+02   -0.36941E-04   -0.19169E-01106560   0.282E+00    0.141E-01
DAV:   2    -0.792906178128E+02   -0.43415E-03   -0.46409E-03110320   0.464E-01    0.838E-02
DAV:   3    -0.792905106037E+02    0.10721E-03   -0.11524E-04148480   0.962E-02    0.415E-02
DAV:   4    -0.792906266621E+02   -0.11606E-03   -0.61181E-05 90560   0.497E-02    0.178E-02
DAV:   5    -0.792905764277E+02    0.50234E-04   -0.18973E-05 57280   0.264E-02    0.126E-02
DAV:   6    -0.792905982644E+02   -0.21837E-04   -0.14753E-05 54400   0.148E-02    0.109E-02
DAV:   7    -0.792906165136E+02   -0.18249E-04   -0.15200E-05 53500   0.115E-02    0.103E-02
DAV:   8    -0.792906388619E+02   -0.22348E-04   -0.60543E-05 64560   0.206E-02    0.983E-03
DAV:   9    -0.792906527659E+02   -0.13904E-04   -0.29330E-05 60980   0.150E-02    0.977E-03
DAV:  10    -0.792906696477E+02   -0.16882E-04   -0.26664E-05 53620   0.133E-02    0.952E-03
DAV:  11    -0.792907062517E+02   -0.36604E-04   -0.16832E-04 82580   0.340E-02    0.963E-03
DAV:  12    -0.792907697458E+02   -0.63494E-04   -0.50660E-04143060   0.596E-02    0.114E-02
DAV:  13    -0.792908072196E+02   -0.37474E-04   -0.15632E-04 78600   0.336E-02    0.984E-03
DAV:  14    -0.792908429933E+02   -0.35774E-04   -0.13991E-04 98520   0.302E-02    0.983E-03
DAV:  15    -0.792908745043E+02   -0.31511E-04   -0.12046E-04 73860   0.268E-02    0.965E-03
DAV:  16    -0.792909065548E+02   -0.32050E-04   -0.12056E-04 75340   0.266E-02    0.971E-03
DAV:  17    -0.792908830678E+02    0.23487E-04   -0.99823E-05 78280   0.311E-02    0.948E-03
DAV:  18    -0.792908358675E+02    0.47200E-04   -0.36666E-04131260   0.473E-02    0.981E-03
DAV:  19    -0.792907745459E+02    0.61322E-04   -0.63634E-04134100   0.584E-02    0.111E-02
DAV:  20    -0.792907343277E+02    0.40218E-04   -0.25938E-04 80640   0.371E-02    0.101E-02
DAV:  21    -0.792908041794E+02   -0.69852E-04   -0.94481E-04137220   0.796E-02    0.114E-02
DAV:  22    -0.792907623939E+02    0.41786E-04   -0.36561E-04100860   0.506E-02    0.883E-03
DAV:  23    -0.792906543602E+02    0.10803E-03   -0.30067E-03147400   0.129E-01    0.174E-02
DAV:  24    -0.792904839697E+02    0.17039E-03   -0.74230E-03139980   0.197E-01    0.284E-02
DAV:  25    -0.792904958360E+02   -0.11866E-04   -0.69043E-05106560   0.533E-02    0.130E-02
DAV:  26    -0.792905251791E+02   -0.29343E-04   -0.54107E-04129120   0.606E-02    0.126E-02
DAV:  27    -0.792905289320E+02   -0.37528E-05   -0.17126E-05 66440   0.182E-02
   4 F= -.79290529E+02 E0= -.79290529E+02  d E =-.376796E-03  mag=     0.0000
