       N       E                     dE             d eps       ncg     rms          ort
DAV:   1     0.650671785453E+04    0.65067E+04   -0.30503E+05 34944   0.180E+03
DAV:   2     0.127362517074E+03   -0.63794E+04   -0.60526E+04 34944   0.519E+02
DAV:   3    -0.739911945828E+03   -0.86727E+03   -0.80699E+03 34944   0.201E+02
DAV:   4    -0.800313543987E+03   -0.60402E+02   -0.56959E+02 34944   0.512E+01
DAV:   5    -0.802415590010E+03   -0.21020E+01   -0.19978E+01 34944   0.104E+01
SDA:   6    -0.643001242190E+03    0.15941E+03   -0.19978E+01 34944   0.586E+02 0.000E+00
CGA:   7    -0.651522414489E+03   -0.85212E+01   -0.85059E+01 34944   0.716E+01-0.581E+00
CGA:   8    -0.652729518035E+03   -0.12071E+01   -0.12173E+01 34944   0.827E+01-0.537E-01
CGA:   9    -0.653354767298E+03   -0.62525E+00   -0.72884E+00 34944   0.288E+01-0.107E+01
CGA:  10    -0.654113196412E+03   -0.75843E+00   -0.83992E+00 34944   0.224E+01-0.552E+00
CGA:  11    -0.654532751023E+03   -0.41955E+00   -0.41803E+00 34944   0.129E+01-0.108E+00
CGA:  12    -0.654906067035E+03   -0.37332E+00   -0.39948E+00 34944   0.767E+00-0.204E+00
CGA:  13    -0.655098989545E+03   -0.19292E+00   -0.21206E+00 34944   0.396E+00-0.145E+00
CGA:  14    -0.655190551958E+03   -0.91562E-01   -0.93571E-01 34944   0.145E+00-0.233E-01
CGA:  15    -0.655228587598E+03   -0.38036E-01   -0.37314E-01 34944   0.567E-01 0.125E-01
CGA:  16    -0.655244423976E+03   -0.15836E-01   -0.15360E-01 34944   0.213E-01 0.155E-01
CGA:  17    -0.655249241568E+03   -0.48176E-02   -0.51648E-02 34944   0.834E-02 0.115E-01
CGA:  18    -0.655250517124E+03   -0.12756E-02   -0.14854E-02 34944   0.388E-02 0.510E-02
CGA:  19    -0.655250828431E+03   -0.31131E-03   -0.55206E-03 34944   0.279E-02 0.322E-02
CGA:  20    -0.655250929987E+03   -0.10156E-03   -0.33244E-03 34944   0.222E-02 0.245E-02
CGA:  21    -0.655250953695E+03   -0.23708E-04   -0.23279E-03 34944   0.186E-02 0.201E-02
CGA:  22    -0.655250941663E+03    0.12032E-04   -0.17537E-03 34944   0.161E-02 0.171E-02
CGA:  23    -0.655250911938E+03    0.29726E-04   -0.13815E-03 34944   0.142E-02 0.149E-02
CGA:  24    -0.655250873465E+03    0.38473E-04   -0.11224E-03 34944   0.127E-02 0.133E-02
CGA:  25    -0.655250831061E+03    0.42404E-04   -0.93292E-04 34944   0.115E-02 0.120E-02
CGA:  26    -0.655250787441E+03    0.43621E-04   -0.78907E-04 34944   0.105E-02 0.109E-02
CGA:  27    -0.655250744160E+03    0.43281E-04   -0.67663E-04 34944   0.969E-03 0.998E-03
CGA:  28    -0.655250702107E+03    0.42052E-04   -0.58657E-04 34944   0.897E-03 0.921E-03
CGA:  29    -0.655250661771E+03    0.40336E-04   -0.51291E-04 34944   0.834E-03 0.854E-03
CGA:  30    -0.655250623394E+03    0.38377E-04   -0.45157E-04 34944   0.778E-03 0.796E-03
CGA:  31    -0.655250587061E+03    0.36334E-04   -0.39956E-04 34944   0.728E-03 0.744E-03
CGA:  32    -0.655250552724E+03    0.34337E-04   -0.35439E-04 34944   0.682E-03 0.698E-03
CGA:  33    -0.655250520226E+03    0.32498E-04   -0.31399E-04 34944   0.639E-03 0.654E-03
CGA:  34    -0.655250489414E+03    0.30811E-04   -0.27782E-04 34944   0.600E-03 0.615E-03
CGA:  35    -0.655250460187E+03    0.29228E-04   -0.24586E-04 34944   0.565E-03 0.578E-03
CGA:  36    -0.655250432467E+03    0.27719E-04   -0.21793E-04 34944   0.533E-03 0.546E-03
CGA:  37    -0.655250406194E+03    0.26274E-04   -0.19368E-04 34944   0.504E-03 0.516E-03
CGA:  38    -0.655250381306E+03    0.24888E-04   -0.17270E-04 34944   0.479E-03 0.489E-03
CGA:  39    -0.655250357746E+03    0.23560E-04   -0.15457E-04 34944   0.456E-03 0.466E-03
CGA:  40    -0.655250335452E+03    0.22293E-04   -0.13890E-04 34944   0.436E-03 0.444E-03
CGA:  41    -0.655250314364E+03    0.21089E-04   -0.12533E-04 34944   0.418E-03 0.425E-03
CGA:  42    -0.655250294418E+03    0.19946E-04   -0.11353E-04 34944   0.401E-03 0.408E-03
CGA:  43    -0.655250275552E+03    0.18865E-04   -0.10324E-04 34944   0.387E-03 0.393E-03
CGA:  44    -0.655250257707E+03    0.17845E-04   -0.94239E-05 34944   0.373E-03 0.379E-03
CGA:  45    -0.655250240823E+03    0.16884E-04   -0.86322E-05 34944   0.361E-03 0.367E-03
CGA:  46    -0.655250224843E+03    0.15979E-04   -0.79330E-05 34944   0.351E-03 0.355E-03
CGA:  47    -0.655250209715E+03    0.15128E-04   -0.73128E-05 34944   0.341E-03 0.345E-03
CGA:  48    -0.655250195387E+03    0.14328E-04   -0.67604E-05 34944   0.332E-03 0.336E-03
CGA:  49    -0.655250181811E+03    0.13576E-04   -0.62662E-05 34944   0.324E-03 0.328E-03
CGA:  50    -0.655250168942E+03    0.12869E-04   -0.58224E-05 34944   0.316E-03 0.320E-03
CGA:  51    -0.655250156738E+03    0.12204E-04   -0.54222E-05 34944   0.310E-03 0.313E-03
CGA:  52    -0.655250145159E+03    0.11579E-04   -0.50601E-05 34944   0.303E-03 0.306E-03
CGA:  53    -0.655250134169E+03    0.10990E-04   -0.47313E-05 34944   0.298E-03 0.300E-03
CGA:  54    -0.655250123733E+03    0.10436E-04   -0.44316E-05 34944   0.292E-03 0.295E-03
CGA:  55    -0.655250113819E+03    0.99144E-05   -0.41577E-05 34944   0.287E-03 0.290E-03
   1 F= -.65525011E+03 E0= -.65525011E+03  d E =-.655250E+03  mag=    -0.0000
       N       E                     dE             d eps       ncg     rms          ort
SDA:   1    -0.654929473426E+03    0.32065E+00    0.00000E+00 34944   0.779E+00 0.000E+00
CGA:   2    -0.655171331091E+03   -0.24186E+00   -0.22518E-02 34944   0.460E+00-0.137E+00
CGA:   3    -0.655234320292E+03   -0.62989E-01   -0.63109E-01 34944   0.775E-01-0.114E-02
CGA:   4    -0.655247603607E+03   -0.13283E-01   -0.13307E-01 34944   0.165E-01-0.318E-03
CGA:   5    -0.655251004214E+03   -0.34006E-02   -0.34107E-02 34944   0.475E-02-0.804E-04
CGA:   6    -0.655252027305E+03   -0.10231E-02   -0.10155E-02 34944   0.122E-02 0.789E-04
CGA:   7    -0.655252305412E+03   -0.27811E-03   -0.27159E-03 34944   0.300E-03 0.699E-04
CGA:   8    -0.655252377241E+03   -0.71829E-04   -0.67484E-04 34944   0.918E-04 0.507E-04
CGA:   9    -0.655252398726E+03   -0.21485E-04   -0.19285E-04 34944   0.423E-04 0.451E-04
CGA:  10    -0.655252407074E+03   -0.83484E-05   -0.83714E-05 34944   0.252E-04 0.381E-04
   2 F= -.65525241E+03 E0= -.65525241E+03  d E =-.229326E-02  mag=    -0.0000
