       N       E                     dE             d eps       ncg     rms          ort
DAV:   1     0.322229044413E+04    0.32223E+04   -0.14312E+05 28560   0.176E+03
DAV:   2     0.653140978389E+02   -0.31570E+04   -0.28881E+04 28560   0.499E+02
DAV:   3    -0.339686876078E+03   -0.40500E+03   -0.39366E+03 28560   0.194E+02
DAV:   4    -0.352820426988E+03   -0.13134E+02   -0.13060E+02 28560   0.368E+01
DAV:   5    -0.352965875262E+03   -0.14545E+00   -0.14535E+00 28560   0.406E+00
SDA:   6    -0.284878470443E+03    0.68087E+02   -0.14535E+00 28560   0.168E+02 0.000E+00
CGA:   7    -0.287571910320E+03   -0.26934E+01   -0.27015E+01 28560   0.225E+01 0.130E+00
CGA:   8    -0.287971435595E+03   -0.39953E+00   -0.40052E+00 28560   0.751E+00 0.474E-01
CGA:   9    -0.288135580372E+03   -0.16414E+00   -0.16352E+00 28560   0.235E+00 0.379E-01
CGA:  10    -0.288196429723E+03   -0.60849E-01   -0.60424E-01 28560   0.102E+00 0.872E-02
CGA:  11    -0.288225516898E+03   -0.29087E-01   -0.29398E-01 28560   0.489E-01-0.420E-02
CGA:  12    -0.288238057787E+03   -0.12541E-01   -0.12596E-01 28560   0.148E-01-0.922E-03
CGA:  13    -0.288241239558E+03   -0.31818E-02   -0.31635E-02 28560   0.376E-02 0.181E-02
CGA:  14    -0.288242122025E+03   -0.88247E-03   -0.88117E-03 28560   0.944E-03 0.103E-02
CGA:  15    -0.288242354781E+03   -0.23276E-03   -0.23682E-03 28560   0.307E-03 0.366E-03
CGA:  16    -0.288242432533E+03   -0.77752E-04   -0.80824E-04 28560   0.121E-03 0.172E-03
CGA:  17    -0.288242479861E+03   -0.47328E-04   -0.43749E-04 28560   0.549E-04 0.229E-04
CGA:  18    -0.288242512971E+03   -0.33110E-04   -0.34751E-04 28560   0.246E-04-0.527E-05
CGA:  19    -0.288242510378E+03    0.25929E-05   -0.96713E-06 28560   0.181E-04 0.191E-04
   1 F= -.28824251E+03 E0= -.28824251E+03  d E =-.288243E+03  mag=    36.0000
       N       E                     dE             d eps       ncg     rms          ort
SDA:   1    -0.288216096752E+03    0.26416E-01    0.00000E+00 28560   0.688E-01 0.000E+00
CGA:   2    -0.288235299378E+03   -0.19203E-01   -0.19102E-01 28560   0.308E-01 0.152E-02
CGA:   3    -0.288241032208E+03   -0.57328E-02   -0.57078E-02 28560   0.744E-02-0.744E-03
CGA:   4    -0.288242357101E+03   -0.13249E-02   -0.13193E-02 28560   0.154E-02-0.177E-03
CGA:   5    -0.288242613504E+03   -0.25640E-03   -0.25883E-03 28560   0.331E-03 0.614E-04
CGA:   6    -0.288242689002E+03   -0.75498E-04   -0.75497E-04 28560   0.976E-04-0.204E-08
CGA:   7    -0.288242716481E+03   -0.27479E-04   -0.36237E-04 28560   0.883E-04-0.544E-04
CGA:   8    -0.288242731764E+03   -0.15283E-04   -0.15061E-04 28560   0.148E-04-0.468E-05
CGA:   9    -0.288242734022E+03   -0.22586E-05   -0.24702E-05 28560   0.396E-05 0.534E-05
   2 F= -.28824273E+03 E0= -.28824273E+03  d E =-.223645E-03  mag=    36.0000
       N       E                     dE             d eps       ncg     rms          ort
SDA:   1    -0.288242616013E+03    0.11575E-03    0.00000E+00 28560   0.319E-03 0.000E+00
CGA:   2    -0.288242680051E+03   -0.64038E-04   -0.64552E-04 28560   0.103E-03 0.888E-04
CGA:   3    -0.288242715624E+03   -0.35573E-04   -0.37465E-04 28560   0.590E-04-0.250E-04
CGA:   4    -0.288242720432E+03   -0.48079E-05   -0.51244E-05 28560   0.143E-04 0.326E-05
CGA:   5    -0.288242721808E+03   -0.13761E-05   -0.17076E-05 28560   0.635E-05 0.355E-05
CGA:   6    -0.288242723575E+03   -0.17671E-05   -0.18624E-05 28560   0.432E-05-0.288E-05
   3 F= -.28824272E+03 E0= -.28824272E+03  d E =-.213197E-03  mag=    36.0000
       N       E                     dE             d eps       ncg     rms          ort
SDA:   1    -0.288242651856E+03    0.69952E-04    0.00000E+00 28560   0.169E-03 0.000E+00
CGA:   2    -0.288242681346E+03   -0.29490E-04   -0.10408E-03 28560   0.541E-03-0.181E-03
CGA:   3    -0.288242721079E+03   -0.39733E-04   -0.53971E-04 28560   0.474E-04 0.114E-03
CGA:   4    -0.288242722449E+03   -0.13697E-05   -0.48289E-05 28560   0.139E-04 0.258E-04
CGA:   5    -0.288242724422E+03   -0.19726E-05   -0.22268E-05 28560   0.292E-05 0.499E-05
CGA:   6    -0.288242724345E+03    0.76639E-07   -0.29105E-06 28560   0.151E-05 0.272E-05
   4 F= -.28824272E+03 E0= -.28824272E+03  d E =-.213967E-03  mag=    36.0000
       N       E                     dE             d eps       ncg     rms          ort
SDA:   1    -0.288242718289E+03    0.61331E-05    0.00000E+00 28560   0.771E-05 0.000E+00
CGA:   2    -0.288242723875E+03   -0.55862E-05    0.87970E-06 28560   0.251E-05 0.164E-05
CGA:   3    -0.288242723816E+03    0.59321E-07   -0.21548E-06 28560   0.139E-05 0.221E-05
CGA:   4    -0.288242723649E+03    0.16674E-06   -0.38401E-07 28560   0.117E-05 0.127E-05
CGA:   5    -0.288242723517E+03    0.13159E-06   -0.32891E-07 28560   0.100E-05 0.108E-05
CGA:   6    -0.288242723412E+03    0.10510E-06   -0.29237E-07 28560   0.875E-06 0.932E-06
   5 F= -.28824272E+03 E0= -.28824272E+03  d E =-.213035E-03  mag=    36.0000
       N       E                     dE             d eps       ncg     rms          ort
SDA:   1    -0.288242722060E+03    0.14575E-05    0.00000E+00 28560   0.178E-05 0.000E+00
CGA:   2    -0.288242721912E+03    0.14816E-06   -0.49597E-07 28560   0.124E-05 0.150E-05
CGA:   3    -0.288242721804E+03    0.10781E-06   -0.31456E-07 28560   0.943E-06 0.109E-05
CGA:   4    -0.288242721722E+03    0.82227E-07   -0.22291E-07 28560   0.755E-06 0.851E-06
CGA:   5    -0.288242721657E+03    0.64543E-07   -0.16882E-07 28560   0.624E-06 0.691E-06
CGA:   6    -0.288242721605E+03    0.51865E-07   -0.13349E-07 28560   0.528E-06 0.578E-06
   6 F= -.28824272E+03 E0= -.28824272E+03  d E =-.211228E-03  mag=    36.0000
       N       E                     dE             d eps       ncg     rms          ort
SDA:   1    -0.288242721408E+03    0.24922E-06    0.00000E+00 28560   0.172E-06 0.000E+00
CGA:   2    -0.288242721678E+03   -0.26976E-06    0.19891E-08 28560   0.981E-07 0.116E-06
CGA:   3    -0.288242721673E+03    0.48640E-08   -0.33275E-08 28560   0.879E-07 0.916E-07
CGA:   4    -0.288242721669E+03    0.39672E-08   -0.30353E-08 28560   0.788E-07 0.822E-07
CGA:   5    -0.288242721665E+03    0.37053E-08   -0.24774E-08 28560   0.714E-07 0.742E-07
CGA:   6    -0.288242721661E+03    0.37126E-08   -0.19153E-08 28560   0.656E-07 0.678E-07
   7 F= -.28824272E+03 E0= -.28824272E+03  d E =-.211284E-03  mag=    36.0000
       N       E                     dE             d eps       ncg     rms          ort
SDA:   1    -0.288225295832E+03    0.17426E-01    0.00000E+00 28560   0.432E-01 0.000E+00
CGA:   2    -0.288239179931E+03   -0.13884E-01   -0.14271E-01 28560   0.191E-01-0.170E-02
CGA:   3    -0.288242137926E+03   -0.29580E-02   -0.29487E-02 28560   0.380E-02 0.192E-03
CGA:   4    -0.288242830276E+03   -0.69235E-03   -0.68866E-03 28560   0.750E-03 0.575E-04
CGA:   5    -0.288242972206E+03   -0.14193E-03   -0.13989E-03 28560   0.169E-03 0.315E-04
CGA:   6    -0.288243009341E+03   -0.37135E-04   -0.36704E-04 28560   0.447E-04 0.497E-05
CGA:   7    -0.288243016566E+03   -0.72255E-05   -0.21444E-04 28560   0.736E-04-0.419E-04
   8 F= -.28824302E+03 E0= -.28824302E+03  d E =-.294905E-03  mag=    36.0000
