       N       E                     dE             d eps       ncg     rms          rms(c)
DAV:   1     0.715825796623E+03    0.71583E+03   -0.33317E+04 94146   0.217E+03
DAV:   2     0.133137274900E+02   -0.70251E+03   -0.66617E+03 98151   0.608E+02
DAV:   3    -0.670364839597E+02   -0.80350E+02   -0.77249E+02108951   0.204E+02
DAV:   4    -0.698090289639E+02   -0.27725E+01   -0.27550E+01100710   0.382E+01
DAV:   5    -0.698568681688E+02   -0.47839E-01   -0.47824E-01107919   0.537E+00    0.518E+00
DAV:   6    -0.555685142139E+02    0.14288E+02   -0.84755E+00 97152   0.209E+01    0.701E+00
DAV:   7    -0.555042138933E+02    0.64300E-01   -0.18551E-01 96618   0.362E+00    0.258E+00
DAV:   8    -0.554720466028E+02    0.32167E-01   -0.44585E-02103368   0.154E+00    0.186E+00
DAV:   9    -0.554595351520E+02    0.12511E-01   -0.12063E-02 98736   0.869E-01    0.128E+00
DAV:  10    -0.554530010952E+02    0.65341E-02   -0.69697E-03101082   0.660E-01    0.877E-01
DAV:  11    -0.554501283627E+02    0.28727E-02   -0.27763E-03100056   0.409E-01    0.623E-01
DAV:  12    -0.554481807035E+02    0.19477E-02   -0.29302E-03 98766   0.419E-01    0.362E-01
DAV:  13    -0.554472853285E+02    0.89537E-03   -0.29369E-03 99234   0.426E-01    0.986E-02
DAV:  14    -0.554472229744E+02    0.62354E-04   -0.23531E-04103974   0.121E-01    0.305E-02
DAV:  15    -0.554472184644E+02    0.45100E-05   -0.66072E-06 51498   0.219E-02
   1 F= -.55447218E+02 E0= -.55447218E+02  d E =-.554472E+02  mag=     0.0000
