       N       E                     dE             d eps       ncg     rms          rms(c)
DAV:   1     0.709935336161E+03    0.70994E+03   -0.39018E+04145017   0.184E+03
DAV:   2    -0.247699893214E+02   -0.73471E+03   -0.71013E+03129618   0.559E+02
DAV:   3    -0.758736748602E+02   -0.51104E+02   -0.50128E+02151659   0.164E+02
DAV:   4    -0.766892537781E+02   -0.81558E+00   -0.81200E+00139905   0.226E+01
DAV:   5    -0.767027242852E+02   -0.13471E-01   -0.13466E-01144276   0.310E+00    0.198E+01
DAV:   6    -0.605292550393E+02    0.16173E+02   -0.47096E+01144531   0.710E+01    0.298E+01
DAV:   7    -0.603416974730E+02    0.18756E+00   -0.29153E+00131499   0.227E+01    0.174E+01
DAV:   8    -0.602663562079E+02    0.75341E-01   -0.82082E-01136626   0.132E+01    0.869E+00
DAV:   9    -0.603099277960E+02   -0.43572E-01   -0.14396E-01129210   0.351E+00    0.980E-01
DAV:  10    -0.603075707889E+02    0.23570E-02   -0.34701E-02163521   0.255E+00    0.283E-01
DAV:  11    -0.603084175762E+02   -0.84679E-03   -0.44523E-03132537   0.515E-01    0.154E-01
DAV:  12    -0.603084379463E+02   -0.20370E-04   -0.85036E-04155418   0.342E-01    0.491E-02
DAV:  13    -0.603089655662E+02   -0.52762E-03   -0.14440E-04129093   0.107E-01    0.262E-02
DAV:  14    -0.603090103586E+02   -0.44792E-04   -0.35552E-05119085   0.466E-02    0.181E-02
DAV:  15    -0.603089825365E+02    0.27822E-04   -0.57296E-06 73317   0.292E-02    0.673E-03
DAV:  16    -0.603090273716E+02   -0.44835E-04   -0.29808E-06 67482   0.135E-02    0.328E-03
DAV:  17    -0.603090242009E+02    0.31708E-05   -0.43750E-07 66582   0.637E-03
   1 F= -.60309024E+02 E0= -.60309024E+02  d E =-.603090E+02  mag=     4.0000
       N       E                     dE             d eps       ncg     rms          rms(c)
DAV:   1    -0.610270334676E+02   -0.71801E+00   -0.16131E+01131886   0.431E+01    0.779E+00
DAV:   2    -0.603714477471E+02    0.65559E+00   -0.28002E+00136437   0.199E+01    0.475E+00
DAV:   3    -0.603445749369E+02    0.26873E-01   -0.77790E-02130845   0.226E+00    0.224E+00
DAV:   4    -0.603347564172E+02    0.98185E-02   -0.46690E-03139449   0.533E-01    0.111E+00
DAV:   5    -0.603265063415E+02    0.82501E-02   -0.16001E-03155421   0.472E-01    0.223E-01
DAV:   6    -0.603254809057E+02    0.10254E-02   -0.39094E-04143943   0.206E-01    0.616E-02
DAV:   7    -0.603252924468E+02    0.18846E-03   -0.24333E-05104685   0.485E-02    0.356E-02
DAV:   8    -0.603253793959E+02   -0.86949E-04   -0.67107E-06 80604   0.310E-02    0.111E-02
DAV:   9    -0.603253237054E+02    0.55691E-04   -0.24379E-06 67395   0.154E-02    0.323E-03
DAV:  10    -0.603253186266E+02    0.50788E-05   -0.63313E-07 66537   0.746E-03
   2 F= -.60325319E+02 E0= -.60325319E+02  d E =-.162944E-01  mag=     4.0000
       N       E                     dE             d eps       ncg     rms          rms(c)
DAV:   1    -0.603402842811E+02   -0.14961E-01   -0.34585E-01131829   0.635E+00    0.117E+00
DAV:   2    -0.603253473514E+02    0.14937E-01   -0.55988E-02134322   0.304E+00    0.726E-01
DAV:   3    -0.603257562671E+02   -0.40892E-03   -0.18140E-03130248   0.318E-01    0.342E-01
DAV:   4    -0.603255131187E+02    0.24315E-03   -0.10085E-04139452   0.760E-02    0.185E-01
DAV:   5    -0.603256435552E+02   -0.13044E-03   -0.31184E-05119949   0.647E-02    0.356E-02
DAV:   6    -0.603257757219E+02   -0.13217E-03   -0.83265E-06 84411   0.309E-02    0.818E-03
DAV:   7    -0.603257962360E+02   -0.20514E-04   -0.14887E-06 65820   0.137E-02    0.522E-03
DAV:   8    -0.603258025847E+02   -0.63487E-05   -0.40736E-07 64983   0.624E-03
   3 F= -.60325803E+02 E0= -.60325803E+02  d E =-.167784E-01  mag=     4.0000
       N       E                     dE             d eps       ncg     rms          rms(c)
DAV:   1    -0.603258998186E+02   -0.10358E-03   -0.23829E-03132414   0.526E-01    0.964E-02
DAV:   2    -0.603256936111E+02    0.20621E-03   -0.38591E-04135309   0.250E-01    0.597E-02
DAV:   3    -0.603257581466E+02   -0.64536E-04   -0.11725E-05 65760   0.265E-02    0.280E-02
DAV:   4    -0.603257569965E+02    0.11502E-05   -0.14284E-06 64461   0.986E-03    0.146E-02
DAV:   5    -0.603257769605E+02   -0.19964E-04   -0.37152E-07 64056   0.658E-03    0.355E-03
DAV:   6    -0.603257842990E+02   -0.73385E-05   -0.18045E-07 63993   0.519E-03
   4 F= -.60325784E+02 E0= -.60325784E+02  d E =-.167601E-01  mag=     4.0000
       N       E                     dE             d eps       ncg     rms          rms(c)
DAV:   1    -0.603283725579E+02   -0.25956E-02   -0.46574E-01125829   0.485E+00    0.453E-01
DAV:   2    -0.603276684998E+02    0.70406E-03   -0.12870E-02134466   0.105E+00    0.273E-01
DAV:   3    -0.603272453903E+02    0.42311E-03   -0.61854E-04161880   0.268E-01    0.140E-01
DAV:   4    -0.603271039961E+02    0.14139E-03   -0.12517E-04156396   0.100E-01    0.519E-02
DAV:   5    -0.603270892811E+02    0.14715E-04   -0.75093E-06 77199   0.376E-02    0.239E-02
DAV:   6    -0.603271366168E+02   -0.47336E-04   -0.54443E-06 67857   0.314E-02    0.841E-03
DAV:   7    -0.603271187313E+02    0.17885E-04   -0.18744E-06 65421   0.150E-02    0.317E-03
DAV:   8    -0.603271160591E+02    0.26722E-05   -0.53098E-07 64842   0.576E-03
   5 F= -.60327116E+02 E0= -.60327116E+02  d E =-.133176E-02  mag=     4.0000
       N       E                     dE             d eps       ncg     rms          rms(c)
DAV:   1    -0.603332667668E+02   -0.61480E-02   -0.19831E+00125823   0.100E+01    0.933E-01
DAV:   2    -0.603306879737E+02    0.25788E-02   -0.55059E-02134547   0.218E+00    0.563E-01
DAV:   3    -0.603283717719E+02    0.23162E-02   -0.26036E-03162012   0.539E-01    0.290E-01
DAV:   4    -0.603280106575E+02    0.36111E-03   -0.51068E-04157071   0.202E-01    0.108E-01
DAV:   5    -0.603279848619E+02    0.25796E-04   -0.35965E-05122910   0.818E-02    0.512E-02
DAV:   6    -0.603280751597E+02   -0.90298E-04   -0.20594E-05 96132   0.702E-02    0.163E-02
DAV:   7    -0.603280308420E+02    0.44318E-04   -0.59532E-06 66789   0.282E-02    0.648E-03
DAV:   8    -0.603280297642E+02    0.10778E-05   -0.13095E-06 65829   0.120E-02
   6 F= -.60328030E+02 E0= -.60328030E+02  d E =-.224547E-02  mag=     4.0000
