       N       E                     dE             d eps       ncg     rms          rms(c)
DAV:   1     0.774729958004E+03    0.77473E+03   -0.35845E+04108848   0.165E+03
DAV:   2    -0.478848861885E+01   -0.77952E+03   -0.73109E+03118744   0.499E+02
DAV:   3    -0.865663894841E+02   -0.81778E+02   -0.76851E+02128176   0.167E+02
DAV:   4    -0.890190764448E+02   -0.24527E+01   -0.24406E+01122696   0.327E+01
DAV:   5    -0.890924478087E+02   -0.73371E-01   -0.73347E-01126648   0.559E+00    0.445E+00
DAV:   6    -0.691388294600E+02    0.19954E+02   -0.94228E+00120520   0.190E+01    0.380E+00
DAV:   7    -0.690531721134E+02    0.85657E-01   -0.29120E-01138880   0.457E+00    0.201E+00
DAV:   8    -0.690239886819E+02    0.29183E-01   -0.53822E-02113336   0.138E+00    0.141E+00
DAV:   9    -0.690181326361E+02    0.58560E-02   -0.47994E-03125960   0.450E-01    0.107E+00
DAV:  10    -0.690127603513E+02    0.53723E-02   -0.42543E-03114832   0.379E-01    0.811E-01
DAV:  11    -0.690088198494E+02    0.39405E-02   -0.42806E-03118416   0.383E-01    0.541E-01
DAV:  12    -0.690078108200E+02    0.10090E-02   -0.60090E-04122000   0.143E-01    0.444E-01
DAV:  13    -0.690061149413E+02    0.16959E-02   -0.31054E-03116872   0.324E-01    0.218E-01
DAV:  14    -0.690057795721E+02    0.33537E-03   -0.55146E-04127792   0.143E-01    0.120E-01
DAV:  15    -0.690056125959E+02    0.16698E-03   -0.42452E-04117080   0.119E-01    0.356E-02
DAV:  16    -0.690055974290E+02    0.15167E-04   -0.37242E-05 91360   0.412E-02    0.109E-02
DAV:  17    -0.690055934415E+02    0.39876E-05   -0.35909E-06 55384   0.137E-02
   1 F= -.69005593E+02 E0= -.69005593E+02  d E =-.690056E+02  mag=    -0.0000
