       N       E                     dE             d eps       ncg     rms          ort
DAV:   1     0.270153235459E+04    0.27015E+04   -0.89284E+04 27328   0.211E+03
DAV:   2     0.260842152922E+03   -0.24407E+04   -0.22426E+04 27328   0.600E+02
DAV:   3    -0.187655825398E+03   -0.44850E+03   -0.43363E+03 27328   0.260E+02
DAV:   4    -0.216586819009E+03   -0.28931E+02   -0.27635E+02 27328   0.652E+01
DAV:   5    -0.217349587842E+03   -0.76277E+00   -0.75186E+00 27328   0.117E+01
SDA:   6    -0.114756420256E+03    0.10259E+03   -0.75186E+00 27328   0.407E+03 0.000E+00
CGA:   7    -0.162661368931E+03   -0.47905E+02   -0.47282E+02 27328   0.505E+02-0.145E+02
CGA:   8    -0.169979041577E+03   -0.73177E+01   -0.72752E+01 27328   0.163E+02-0.497E+00
CGA:   9    -0.174243894823E+03   -0.42649E+01   -0.42753E+01 27328   0.181E+02-0.211E+00
CGA:  10    -0.177185096808E+03   -0.29412E+01   -0.30204E+01 27328   0.918E+01 0.465E+00
CGA:  11    -0.178694005557E+03   -0.15089E+01   -0.15449E+01 27328   0.261E+01 0.408E+00
CGA:  12    -0.179160292476E+03   -0.46629E+00   -0.47575E+00 27328   0.640E+00 0.192E+00
CGA:  13    -0.179319411881E+03   -0.15912E+00   -0.15870E+00 27328   0.245E+00 0.348E-02
CGA:  14    -0.179383079276E+03   -0.63667E-01   -0.63129E-01 27328   0.912E-01 0.724E-02
CGA:  15    -0.179408245146E+03   -0.25166E-01   -0.24717E-01 27328   0.345E-01 0.662E-02
CGA:  16    -0.179418745455E+03   -0.10500E-01   -0.10329E-01 27328   0.119E-01 0.217E-02
CGA:  17    -0.179422412158E+03   -0.36667E-02   -0.36339E-02 27328   0.390E-02 0.389E-03
CGA:  18    -0.179423712856E+03   -0.13007E-02   -0.12896E-02 27328   0.178E-02 0.989E-04
CGA:  19    -0.179424408949E+03   -0.69609E-03   -0.13830E-02 27328   0.401E-02-0.125E-02
CGA:  20    -0.179425677405E+03   -0.12685E-02   -0.12787E-02 27328   0.899E-03-0.136E-03
CGA:  21    -0.179426125060E+03   -0.44765E-03   -0.39593E-03 27328   0.515E-03 0.246E-03
CGA:  22    -0.179426868810E+03   -0.74375E-03   -0.81763E-03 27328   0.154E-02-0.733E-04
CGA:  23    -0.179427514091E+03   -0.64528E-03   -0.15304E-02 27328   0.320E-02-0.104E-02
CGA:  24    -0.179428888229E+03   -0.13741E-02   -0.13456E-02 27328   0.103E-02 0.401E-03
CGA:  25    -0.179429443132E+03   -0.55490E-03   -0.54398E-03 27328   0.530E-03 0.139E-03
CGA:  26    -0.179429745935E+03   -0.30280E-03   -0.30297E-03 27328   0.423E-03-0.290E-05
CGA:  27    -0.179429871472E+03   -0.12554E-03   -0.13359E-03 27328   0.343E-03 0.947E-04
CGA:  28    -0.179430045065E+03   -0.17359E-03   -0.16911E-03 27328   0.365E-03 0.132E-03
CGA:  29    -0.179430373784E+03   -0.32872E-03   -0.29962E-03 27328   0.754E-03 0.169E-03
CGA:  30    -0.179430870805E+03   -0.49702E-03   -0.48318E-03 27328   0.131E-02 0.185E-03
CGA:  31    -0.179431568032E+03   -0.69723E-03   -0.69286E-03 27328   0.200E-02-0.177E-04
CGA:  32    -0.179432204333E+03   -0.63630E-03   -0.63469E-03 27328   0.213E-02-0.135E-04
CGA:  33    -0.179433015950E+03   -0.81162E-03   -0.81074E-03 27328   0.194E-02 0.274E-03
CGA:  34    -0.179433807817E+03   -0.79187E-03   -0.79728E-03 27328   0.186E-02 0.339E-03
CGA:  35    -0.179434640961E+03   -0.83314E-03   -0.83261E-03 27328   0.162E-02 0.335E-03
CGA:  36    -0.179435176474E+03   -0.53551E-03   -0.57274E-03 27328   0.138E-02 0.492E-03
CGA:  37    -0.179435681979E+03   -0.50550E-03   -0.53519E-03 27328   0.117E-02 0.390E-03
CGA:  38    -0.179436273366E+03   -0.59139E-03   -0.59221E-03 27328   0.146E-02-0.330E-04
CGA:  39    -0.179436835312E+03   -0.56195E-03   -0.62984E-03 27328   0.266E-02-0.836E-03
CGA:  40    -0.179438294538E+03   -0.14592E-02   -0.14419E-02 27328   0.102E-02 0.400E-04
CGA:  41    -0.179438924102E+03   -0.62956E-03   -0.68233E-03 27328   0.740E-03-0.176E-03
CGA:  42    -0.179439147231E+03   -0.22313E-03   -0.22436E-03 27328   0.407E-03-0.726E-04
CGA:  43    -0.179439297763E+03   -0.15053E-03   -0.15147E-03 27328   0.261E-03-0.581E-04
CGA:  44    -0.179439385856E+03   -0.88093E-04   -0.88114E-04 27328   0.215E-03 0.228E-04
CGA:  45    -0.179439487876E+03   -0.10202E-03   -0.10133E-03 27328   0.166E-03 0.271E-04
CGA:  46    -0.179439574777E+03   -0.86901E-04   -0.96129E-04 27328   0.176E-03-0.514E-04
CGA:  47    -0.179439613699E+03   -0.38923E-04   -0.36906E-04 27328   0.146E-03-0.137E-05
CGA:  48    -0.179439654264E+03   -0.40565E-04   -0.41602E-04 27328   0.799E-04 0.480E-05
CGA:  49    -0.179439691869E+03   -0.37605E-04   -0.45441E-04 27328   0.149E-03-0.457E-04
CGA:  50    -0.179439763260E+03   -0.71391E-04   -0.73926E-04 27328   0.652E-04-0.336E-04
CGA:  51    -0.179439781706E+03   -0.18446E-04   -0.18902E-04 27328   0.279E-04 0.138E-04
CGA:  52    -0.179439798066E+03   -0.16360E-04   -0.16235E-04 27328   0.199E-04 0.988E-06
CGA:  53    -0.179439816298E+03   -0.18232E-04    0.50623E-04 27328   0.215E-04 0.226E-05
CGA:  54    -0.179433957321E+03    0.58590E-02   -0.13075E-02 27328   0.474E-01-0.384E-02
CGA:  55    -0.179438011510E+03   -0.40542E-02   -0.18070E-01 27328   0.720E-02 0.198E-02
CGA:  56    -0.179439326638E+03   -0.13151E-02   -0.29842E-02 27328   0.166E-02 0.733E-03
CGA:  57    -0.179439457626E+03   -0.13099E-03   -0.64647E-03 27328   0.115E-02 0.412E-03
CGA:  58    -0.179438373741E+03    0.10839E-02   -0.27551E-03 27328   0.393E-02 0.102E-02
CGA:  59    -0.179437113546E+03    0.12602E-02   -0.97644E-03 27328   0.734E-02 0.184E-02
CGA:  60    -0.179415713627E+03    0.21400E-01   -0.11229E-02 27328   0.553E-01 0.186E-01
CGA:  61    -0.179406621946E+03    0.90917E-02   -0.13600E-01 27328   0.874E-01 0.290E-01
CGA:  62    -0.179407534054E+03   -0.91211E-03   -0.25141E-01 27328   0.658E-01 0.328E-01
CGA:  63    -0.179396815061E+03    0.10719E-01   -0.18359E-01 27328   0.772E-01 0.565E-01
CGA:  64    -0.179406295629E+03   -0.94806E-02   -0.21237E-01 27328   0.585E-01 0.420E-01
CGA:  65    -0.179424288563E+03   -0.17993E-01   -0.21571E-01 27328   0.240E-01 0.949E-02
CGA:  66    -0.179427393277E+03   -0.31047E-02   -0.73802E-02 27328   0.136E-01 0.118E-01
CGA:  67    -0.179433057232E+03   -0.56640E-02   -0.63263E-02 27328   0.589E-02 0.331E-02
CGA:  68    -0.179434261058E+03   -0.12038E-02   -0.18160E-02 27328   0.421E-02 0.228E-02
CGA:  69    -0.179435285012E+03   -0.10240E-02   -0.14921E-02 27328   0.288E-02 0.540E-03
CGA:  70    -0.179435683485E+03   -0.39847E-03   -0.77768E-03 27328   0.228E-02 0.270E-03
CGA:  71    -0.179436257312E+03   -0.57383E-03   -0.72619E-03 27328   0.159E-02-0.148E-03
CGA:  72    -0.179436958906E+03   -0.70159E-03   -0.70702E-03 27328   0.122E-02-0.573E-04
CGA:  73    -0.179437208036E+03   -0.24913E-03   -0.28275E-03 27328   0.115E-02 0.404E-03
CGA:  74    -0.179437531855E+03   -0.32382E-03   -0.37033E-03 27328   0.107E-02 0.470E-03
CGA:  75    -0.179437780267E+03   -0.24841E-03   -0.29994E-03 27328   0.106E-02 0.431E-03
CGA:  76    -0.179437970244E+03   -0.18998E-03   -0.23612E-03 27328   0.109E-02 0.391E-03
CGA:  77    -0.179438120006E+03   -0.14976E-03   -0.18637E-03 27328   0.111E-02 0.353E-03
CGA:  78    -0.179438242152E+03   -0.12215E-03   -0.14879E-03 27328   0.110E-02 0.309E-03
CGA:  79    -0.179438344521E+03   -0.10237E-03   -0.12020E-03 27328   0.108E-02 0.258E-03
CGA:  80    -0.179438432167E+03   -0.87646E-04   -0.98159E-04 27328   0.104E-02 0.205E-03
CGA:  81    -0.179438508737E+03   -0.76570E-04   -0.81225E-04 27328   0.991E-03 0.157E-03
CGA:  82    -0.179438577045E+03   -0.68308E-04   -0.68349E-04 27328   0.946E-03 0.116E-03
CGA:  83    -0.179438639218E+03   -0.62173E-04   -0.58622E-04 27328   0.906E-03 0.828E-04
CGA:  84    -0.179438696771E+03   -0.57554E-04   -0.51240E-04 27328   0.870E-03 0.568E-04
CGA:  85    -0.179438750731E+03   -0.53960E-04   -0.45569E-04 27328   0.839E-03 0.366E-04
CGA:  86    -0.179438801748E+03   -0.51017E-04   -0.41125E-04 27328   0.810E-03 0.207E-04
CGA:  87    -0.179438850224E+03   -0.48476E-04   -0.37565E-04 27328   0.786E-03 0.835E-05
CGA:  88    -0.179438896454E+03   -0.46230E-04   -0.34687E-04 27328   0.765E-03-0.105E-05
CGA:  89    -0.179438940712E+03   -0.44258E-04   -0.32376E-04 27328   0.749E-03-0.795E-05
CGA:  90    -0.179438983228E+03   -0.42516E-04   -0.30534E-04 27328   0.738E-03-0.126E-04
CGA:  91    -0.179439024218E+03   -0.40990E-04   -0.29075E-04 27328   0.732E-03-0.153E-04
CGA:  92    -0.179439063821E+03   -0.39603E-04   -0.27911E-04 27328   0.729E-03-0.161E-04
CGA:  93    -0.179439102104E+03   -0.38283E-04   -0.26957E-04 27328   0.729E-03-0.152E-04
CGA:  94    -0.179439139060E+03   -0.36956E-04   -0.26146E-04 27328   0.729E-03-0.128E-04
SDA:  95    -0.179439174627E+03   -0.35567E-04   -0.25417E-04 27328   0.730E-03-0.918E-05
CGA:  96    -0.179440056925E+03   -0.88230E-03   -0.94256E-05 27328   0.597E-03-0.266E-03
CGA:  97    -0.179440132985E+03   -0.76060E-04   -0.75548E-04 27328   0.320E-03 0.186E-04
CGA:  98    -0.179440154170E+03   -0.21184E-04   -0.22376E-04 27328   0.536E-03 0.606E-05
CGA:  99    -0.179440183325E+03   -0.29155E-04   -0.31372E-04 27328   0.253E-03 0.104E-04
CGA: 100    -0.179440194385E+03   -0.11060E-04   -0.12123E-04 27328   0.184E-03 0.395E-05
   1 F= -.17944019E+03 E0= -.17944019E+03  d E =-.179440E+03  mag=    16.0000
       N       E                     dE             d eps       ncg     rms          ort
SDA:   1    -0.179419617985E+03    0.20565E-01    0.00000E+00 27328   0.654E-01 0.000E+00
CGA:   2    -0.179432290825E+03   -0.12673E-01   -0.12929E-01 27328   0.314E-01 0.270E-02
CGA:   3    -0.179438683016E+03   -0.63922E-02   -0.64589E-02 27328   0.655E-02 0.750E-03
CGA:   4    -0.179440029774E+03   -0.13468E-02   -0.13057E-02 27328   0.193E-02-0.481E-03
CGA:   5    -0.179440379176E+03   -0.34940E-03   -0.33619E-03 27328   0.525E-03-0.151E-03
CGA:   6    -0.179440449939E+03   -0.70763E-04   -0.81319E-04 27328   0.126E-03 0.101E-03
CGA:   7    -0.179440481364E+03   -0.31425E-04   -0.32611E-04 27328   0.664E-04 0.238E-04
CGA:   8    -0.179440533561E+03   -0.52197E-04    0.41444E-04 27328   0.358E-04 0.118E-04
CGA:   9    -0.179440571250E+03   -0.37689E-04    0.80659E-05 27328   0.242E-04 0.930E-05
CGA:  10    -0.179440588660E+03   -0.17410E-04    0.48728E-04 27328   0.185E-04 0.123E-04
CGA:  11    -0.179440590072E+03   -0.14117E-05   -0.28205E-05 27328   0.110E-04 0.126E-04
   2 F= -.17944059E+03 E0= -.17944059E+03  d E =-.395687E-03  mag=    16.0000
