       N       E                     dE             d eps       ncg     rms          rms(c)
DAV:   1     0.990699641325E+03    0.99070E+03   -0.41615E+04158940   0.220E+03
DAV:   2     0.349318468555E+02   -0.95577E+03   -0.92147E+03171420   0.631E+02
DAV:   3    -0.770616706743E+02   -0.11199E+03   -0.10920E+03162120   0.213E+02
DAV:   4    -0.809059938949E+02   -0.38443E+01   -0.38298E+01166764   0.411E+01
DAV:   5    -0.809677202160E+02   -0.61726E-01   -0.61710E-01177876   0.518E+00    0.416E+00
DAV:   6    -0.622066577067E+02    0.18761E+02   -0.77160E+00163376   0.174E+01    0.519E+00
DAV:   7    -0.621335489656E+02    0.73109E-01   -0.15286E-01163340   0.283E+00    0.212E+00
DAV:   8    -0.621065306296E+02    0.27018E-01   -0.45865E-02165340   0.154E+00    0.131E+00
DAV:   9    -0.621005169790E+02    0.60137E-02   -0.29937E-03162996   0.345E-01    0.117E+00
DAV:  10    -0.620932028711E+02    0.73141E-02   -0.50330E-03164240   0.524E-01    0.866E-01
DAV:  11    -0.620882287233E+02    0.49741E-02   -0.50011E-03163916   0.465E-01    0.596E-01
DAV:  12    -0.620867335936E+02    0.14951E-02   -0.92468E-04164156   0.196E-01    0.479E-01
DAV:  13    -0.620861871012E+02    0.54649E-03   -0.17302E-04163468   0.898E-02    0.422E-01
DAV:  14    -0.620849656220E+02    0.12215E-02   -0.15726E-03164020   0.271E-01    0.250E-01
DAV:  15    -0.620843868318E+02    0.57879E-03   -0.19319E-03164132   0.292E-01    0.666E-02
DAV:  16    -0.620843669408E+02    0.19891E-04   -0.96507E-05163896   0.663E-02    0.348E-02
DAV:  17    -0.620843660714E+02    0.86944E-06   -0.27870E-06 86572   0.137E-02
   1 F= -.62084366E+02 E0= -.62084366E+02  d E =-.620844E+02  mag=    -0.0000
       N       E                     dE             d eps       ncg     rms          rms(c)
DAV:   1    -0.620970697368E+02   -0.12703E-01   -0.31198E-01163464   0.560E+00    0.968E-01
DAV:   2    -0.620858910426E+02    0.11179E-01   -0.43295E-02159920   0.309E+00    0.890E-01
DAV:   3    -0.620845890747E+02    0.13020E-02   -0.48747E-03178640   0.943E-01    0.364E-01
DAV:   4    -0.620842826009E+02    0.30647E-03   -0.24562E-03161588   0.315E-01    0.132E-01
DAV:   5    -0.620841956639E+02    0.86937E-04   -0.22461E-04206656   0.270E-01    0.805E-02
DAV:   6    -0.620840838725E+02    0.11179E-03   -0.33479E-04164396   0.132E-01    0.364E-02
DAV:   7    -0.620841002073E+02   -0.16335E-04   -0.40115E-05109608   0.606E-02    0.279E-02
DAV:   8    -0.620841058307E+02   -0.56233E-05   -0.18304E-05 80728   0.303E-02
   2 F= -.62084106E+02 E0= -.62084106E+02  d E =0.260241E-03  mag=    -0.0000
       N       E                     dE             d eps       ncg     rms          rms(c)
DAV:   1    -0.620899624582E+02   -0.58623E-02   -0.13150E-01163484   0.363E+00    0.614E-01
DAV:   2    -0.620849288075E+02    0.50337E-02   -0.17726E-02159764   0.196E+00    0.561E-01
DAV:   3    -0.620846229036E+02    0.30590E-03   -0.19566E-03172288   0.585E-01    0.240E-01
DAV:   4    -0.620844657542E+02    0.15715E-03   -0.10297E-03161372   0.225E-01    0.924E-02
DAV:   5    -0.620843987140E+02    0.67040E-04   -0.10720E-04191500   0.183E-01    0.590E-02
DAV:   6    -0.620844506770E+02   -0.51963E-04   -0.12440E-04150964   0.116E-01    0.252E-02
DAV:   7    -0.620844377548E+02    0.12922E-04   -0.18077E-05 90496   0.442E-02    0.169E-02
DAV:   8    -0.620844317616E+02    0.59932E-05   -0.19645E-05 78536   0.328E-02
   3 F= -.62084432E+02 E0= -.62084432E+02  d E =-.656902E-04  mag=    -0.0000
       N       E                     dE             d eps       ncg     rms          rms(c)
DAV:   1    -0.620845016393E+02   -0.63884E-04   -0.12741E-03163580   0.357E-01    0.602E-02
DAV:   2    -0.620844264697E+02    0.75170E-04   -0.16566E-04159956   0.197E-01    0.559E-02
DAV:   3    -0.620844360173E+02   -0.95475E-05   -0.15345E-05 82784   0.606E-02    0.241E-02
DAV:   4    -0.620844340352E+02    0.19821E-05   -0.20670E-05 83304   0.275E-02    0.975E-03
DAV:   5    -0.620844315189E+02    0.25163E-05   -0.18005E-06 77512   0.187E-02    0.720E-03
DAV:   6    -0.620844375027E+02   -0.59839E-05   -0.47882E-06 77392   0.153E-02
   4 F= -.62084438E+02 E0= -.62084438E+02  d E =-.714314E-04  mag=    -0.0000
       N       E                     dE             d eps       ncg     rms          rms(c)
DAV:   1    -0.620847313719E+02   -0.29985E-03   -0.65404E-03163572   0.812E-01    0.138E-01
DAV:   2    -0.620844176006E+02    0.31377E-03   -0.87991E-04159808   0.437E-01    0.126E-01
DAV:   3    -0.620844247198E+02   -0.71192E-05   -0.96024E-05170188   0.130E-01    0.525E-02
DAV:   4    -0.620844151045E+02    0.96153E-05   -0.48913E-05141492   0.429E-02    0.185E-02
DAV:   5    -0.620844089219E+02    0.61826E-05   -0.36638E-06 77696   0.365E-02    0.114E-02
DAV:   6    -0.620844232673E+02   -0.14345E-04   -0.11485E-05 77848   0.228E-02    0.722E-03
DAV:   7    -0.620844199805E+02    0.32868E-05   -0.12086E-06 77484   0.888E-03
   5 F= -.62084420E+02 E0= -.62084420E+02  d E =-.539092E-04  mag=    -0.0000
       N       E                     dE             d eps       ncg     rms          rms(c)
DAV:   1    -0.620844890585E+02   -0.65791E-04   -0.16118E-03164432   0.403E-01    0.696E-02
DAV:   2    -0.620843913972E+02    0.97661E-04   -0.21894E-04159944   0.218E-01    0.629E-02
DAV:   3    -0.620844001816E+02   -0.87843E-05   -0.21158E-05 96412   0.648E-02    0.274E-02
DAV:   4    -0.620843974679E+02    0.27136E-05   -0.20788E-05 86540   0.270E-02    0.103E-02
DAV:   5    -0.620843946163E+02    0.28516E-05   -0.15742E-06 77008   0.172E-02    0.707E-03
DAV:   6    -0.620844018652E+02   -0.72489E-05   -0.52817E-06 76980   0.148E-02
   6 F= -.62084402E+02 E0= -.62084402E+02  d E =-.357938E-04  mag=    -0.0000
       N       E                     dE             d eps       ncg     rms          rms(c)
DAV:   1    -0.620845968292E+02   -0.20221E-03   -0.10069E-01152796   0.264E+00    0.211E-01
DAV:   2    -0.620848644368E+02   -0.26761E-03   -0.62676E-03167672   0.672E-01    0.158E-01
DAV:   3    -0.620846821662E+02    0.18227E-03   -0.40831E-04180064   0.235E-01    0.109E-01
DAV:   4    -0.620846099810E+02    0.72185E-04   -0.21424E-04207512   0.187E-01    0.493E-02
DAV:   5    -0.620846335094E+02   -0.23528E-04   -0.17016E-04154648   0.981E-02    0.313E-02
DAV:   6    -0.620846462575E+02   -0.12748E-04   -0.80908E-05 83136   0.666E-02    0.233E-02
DAV:   7    -0.620846525748E+02   -0.63173E-05   -0.34840E-05 78952   0.437E-02
   7 F= -.62084653E+02 E0= -.62084653E+02  d E =-.250710E-03  mag=    -0.0000
