       N       E                     dE             d eps       ncg     rms          rms(c)
DAV:   1     0.105731099209E+04    0.10573E+04   -0.40663E+04156880   0.214E+03
DAV:   2     0.372832991720E+02   -0.10200E+04   -0.96069E+03167688   0.622E+02
DAV:   3    -0.978651434437E+02   -0.13515E+03   -0.13332E+03162844   0.234E+02
DAV:   4    -0.102375151258E+03   -0.45100E+01   -0.44836E+01167668   0.435E+01
DAV:   5    -0.102440853763E+03   -0.65703E-01   -0.65663E-01172804   0.574E+00    0.364E+01
DAV:   6    -0.717689932451E+02    0.30672E+02   -0.69782E+01187752   0.873E+01    0.370E+01
DAV:   7    -0.796315379573E+02   -0.78625E+01   -0.25751E+01164896   0.700E+01    0.556E+01
DAV:   8    -0.717768028763E+02    0.78547E+01   -0.45353E+01169168   0.560E+01    0.214E+01
DAV:   9    -0.715453674497E+02    0.23144E+00   -0.43501E+00173020   0.234E+01    0.140E+01
DAV:  10    -0.720532547837E+02   -0.50789E+00   -0.16372E+00163636   0.131E+01    0.934E+00
DAV:  11    -0.722082824755E+02   -0.15503E+00   -0.14210E+00170160   0.112E+01    0.481E+00
DAV:  12    -0.723219272123E+02   -0.11364E+00   -0.20214E-01180284   0.575E+00    0.268E+00
DAV:  13    -0.723099857362E+02    0.11941E-01   -0.10779E-01174480   0.415E+00    0.152E+00
DAV:  14    -0.723477869405E+02   -0.37801E-01   -0.50430E-02173036   0.244E+00    0.928E-01
DAV:  15    -0.723504113009E+02   -0.26244E-02   -0.18373E-02181140   0.143E+00    0.628E-01
DAV:  16    -0.723503707520E+02    0.40549E-04   -0.12787E-02185588   0.882E-01    0.549E-01
DAV:  17    -0.723509136210E+02   -0.54287E-03   -0.84245E-03172704   0.838E-01    0.490E-01
DAV:  18    -0.723532945098E+02   -0.23809E-02   -0.42943E-02168468   0.172E+00    0.342E-01
DAV:  19    -0.723558404066E+02   -0.25459E-02   -0.47453E-02176536   0.186E+00    0.221E-01
DAV:  20    -0.723543881141E+02    0.14523E-02   -0.57107E-03173792   0.557E-01    0.178E-01
DAV:  21    -0.723553411249E+02   -0.95301E-03   -0.35469E-03191592   0.389E-01    0.160E-01
DAV:  22    -0.723569305801E+02   -0.15895E-02   -0.13623E-02166632   0.897E-01    0.121E-01
DAV:  23    -0.723558863623E+02    0.10442E-02   -0.19142E-03206360   0.402E-01    0.794E-02
DAV:  24    -0.723562976967E+02   -0.41133E-03   -0.94991E-04180428   0.259E-01    0.506E-02
DAV:  25    -0.723569512558E+02   -0.65356E-03   -0.26187E-03162216   0.337E-01    0.503E-02
DAV:  26    -0.723569887571E+02   -0.37501E-04   -0.31387E-04169732   0.104E-01    0.490E-02
DAV:  27    -0.723569897678E+02   -0.10106E-05   -0.27185E-05114988   0.447E-02
   1 F= -.72356990E+02 E0= -.72356990E+02  d E =-.723570E+02  mag=    -0.0007
       N       E                     dE             d eps       ncg     rms          rms(c)
DAV:   1    -0.723635914734E+02   -0.66027E-02   -0.19710E+01152768   0.277E+01    0.251E+00
DAV:   2    -0.724095130384E+02   -0.45922E-01   -0.71382E-01153812   0.572E+00    0.154E+00
DAV:   3    -0.723941321850E+02    0.15381E-01   -0.22258E-02168408   0.143E+00    0.857E-01
DAV:   4    -0.723940488257E+02    0.83359E-04   -0.33289E-02172260   0.107E+00    0.409E-01
DAV:   5    -0.723955025645E+02   -0.14537E-02   -0.10888E-02169072   0.765E-01    0.373E-01
DAV:   6    -0.723954501375E+02    0.52427E-04   -0.14277E-03172152   0.342E-01    0.316E-01
DAV:   7    -0.723956067737E+02   -0.15664E-03   -0.56833E-03177336   0.687E-01    0.222E-01
DAV:   8    -0.723958307101E+02   -0.22394E-03   -0.38210E-03181280   0.495E-01    0.160E-01
DAV:   9    -0.723959062307E+02   -0.75521E-04   -0.16724E-03206268   0.316E-01    0.132E-01
DAV:  10    -0.723962113511E+02   -0.30512E-03   -0.62378E-03164340   0.582E-01    0.906E-02
DAV:  11    -0.723962977905E+02   -0.86439E-04   -0.29898E-03211144   0.439E-01    0.598E-02
DAV:  12    -0.723962502696E+02    0.47521E-04   -0.42060E-04165308   0.154E-01    0.471E-02
DAV:  13    -0.723962734364E+02   -0.23167E-04   -0.46213E-04108552   0.160E-01    0.369E-02
DAV:  14    -0.723963976415E+02   -0.12421E-03   -0.13934E-03164492   0.259E-01    0.288E-02
DAV:  15    -0.723963755792E+02    0.22062E-04   -0.59611E-04179884   0.165E-01    0.234E-02
DAV:  16    -0.723963689295E+02    0.66496E-05   -0.55046E-04137924   0.151E-01    0.178E-02
DAV:  17    -0.723963998346E+02   -0.30905E-04   -0.63367E-04142040   0.160E-01    0.157E-02
DAV:  18    -0.723964003377E+02   -0.50313E-06   -0.41870E-04150376   0.125E-01    0.143E-02
DAV:  19    -0.723963803732E+02    0.19965E-04   -0.10504E-04135256   0.538E-02    0.124E-02
DAV:  20    -0.723963951963E+02   -0.14823E-04   -0.83697E-05 79932   0.520E-02    0.107E-02
DAV:  21    -0.723963875382E+02    0.76581E-05   -0.17706E-04 92428   0.829E-02    0.768E-03
DAV:  22    -0.723963604052E+02    0.27133E-04   -0.29779E-05 94068   0.426E-02    0.471E-03
DAV:  23    -0.723963717954E+02   -0.11390E-04   -0.66412E-06 77272   0.187E-02    0.330E-03
DAV:  24    -0.723963718057E+02   -0.10330E-07   -0.39063E-06 77152   0.131E-02
   2 F= -.72396372E+02 E0= -.72396372E+02  d E =-.393820E-01  mag=     0.0000
       N       E                     dE             d eps       ncg     rms          rms(c)
DAV:   1    -0.723922857209E+02    0.40861E-02   -0.64756E+00152768   0.159E+01    0.146E+00
DAV:   2    -0.724065927062E+02   -0.14307E-01   -0.23230E-01153944   0.327E+00    0.902E-01
DAV:   3    -0.724009546800E+02    0.56380E-02   -0.76223E-03167916   0.811E-01    0.502E-01
DAV:   4    -0.724012810159E+02   -0.32634E-03   -0.11159E-02166292   0.617E-01    0.230E-01
DAV:   5    -0.724017084126E+02   -0.42740E-03   -0.41261E-03162740   0.452E-01    0.219E-01
DAV:   6    -0.724017461691E+02   -0.37757E-04   -0.52768E-04185512   0.186E-01    0.196E-01
DAV:   7    -0.724019501014E+02   -0.20393E-03   -0.20060E-03160608   0.352E-01    0.163E-01
DAV:   8    -0.724020413858E+02   -0.91284E-04   -0.19549E-03169612   0.339E-01    0.132E-01
DAV:   9    -0.724021419596E+02   -0.10057E-03   -0.15579E-03182256   0.312E-01    0.101E-01
DAV:  10    -0.724023632647E+02   -0.22131E-03   -0.46528E-03162880   0.544E-01    0.555E-02
DAV:  11    -0.724022272584E+02    0.13601E-03   -0.89909E-04212424   0.255E-01    0.304E-02
DAV:  12    -0.724022441644E+02   -0.16906E-04   -0.18687E-04156712   0.143E-01    0.199E-02
DAV:  13    -0.724022651037E+02   -0.20939E-04   -0.29432E-05 91532   0.433E-02    0.149E-02
DAV:  14    -0.724022791652E+02   -0.14061E-04   -0.10680E-04 87200   0.711E-02    0.958E-03
DAV:  15    -0.724022672399E+02    0.11925E-04   -0.54222E-05 85756   0.488E-02    0.730E-03
DAV:  16    -0.724022646781E+02    0.25619E-05   -0.27704E-05 77968   0.312E-02
   3 F= -.72402265E+02 E0= -.72402265E+02  d E =-.452749E-01  mag=     0.0000
       N       E                     dE             d eps       ncg     rms          rms(c)
DAV:   1    -0.724323172152E+02   -0.30050E-01   -0.18295E+00155892   0.106E+01    0.163E+00
DAV:   2    -0.724100733702E+02    0.22244E-01   -0.14281E-01157424   0.482E+00    0.153E+00
DAV:   3    -0.724091925030E+02    0.88087E-03   -0.13020E-02177144   0.162E+00    0.701E-01
DAV:   4    -0.724068271005E+02    0.23654E-02   -0.83363E-03168164   0.771E-01    0.287E-01
DAV:   5    -0.724060205261E+02    0.80657E-03   -0.31067E-03187768   0.704E-01    0.187E-01
DAV:   6    -0.724064831148E+02   -0.46259E-03   -0.23941E-03176656   0.351E-01    0.130E-01
DAV:   7    -0.724065036902E+02   -0.20575E-04   -0.42626E-04164948   0.172E-01    0.117E-01
DAV:   8    -0.724065375901E+02   -0.33900E-04   -0.90054E-04163920   0.225E-01    0.957E-02
DAV:   9    -0.724066460476E+02   -0.10846E-03   -0.10924E-03168264   0.271E-01    0.688E-02
DAV:  10    -0.724066189950E+02    0.27053E-04   -0.84191E-04188280   0.240E-01    0.463E-02
DAV:  11    -0.724067243430E+02   -0.10535E-03   -0.32846E-04166444   0.116E-01    0.358E-02
DAV:  12    -0.724067735433E+02   -0.49200E-04   -0.10041E-03162328   0.193E-01    0.300E-02
DAV:  13    -0.724067944621E+02   -0.20919E-04   -0.94587E-04160508   0.191E-01    0.260E-02
DAV:  14    -0.724068528240E+02   -0.58362E-04   -0.19986E-03162420   0.277E-01    0.220E-02
DAV:  15    -0.724068428957E+02    0.99283E-05   -0.81386E-04189528   0.170E-01    0.177E-02
DAV:  16    -0.724068126917E+02    0.30204E-04   -0.72894E-04143384   0.164E-01    0.127E-02
DAV:  17    -0.724068348737E+02   -0.22182E-04   -0.22903E-04155884   0.877E-02    0.853E-03
DAV:  18    -0.724067996435E+02    0.35230E-04   -0.38761E-05123384   0.535E-02    0.727E-03
DAV:  19    -0.724068118517E+02   -0.12208E-04   -0.22661E-06 77328   0.105E-02    0.491E-03
DAV:  20    -0.724068119409E+02   -0.89163E-07   -0.25256E-06 77216   0.119E-02
   4 F= -.72406812E+02 E0= -.72406812E+02  d E =-.454726E-02  mag=    -0.0000
       N       E                     dE             d eps       ncg     rms          rms(c)
DAV:   1    -0.724074506068E+02   -0.63876E-03   -0.34890E-02155944   0.146E+00    0.223E-01
DAV:   2    -0.724067287055E+02    0.72190E-03   -0.26631E-03157476   0.653E-01    0.208E-01
DAV:   3    -0.724070846614E+02   -0.35596E-03   -0.23965E-04180700   0.219E-01    0.958E-02
DAV:   4    -0.724070424696E+02    0.42192E-04   -0.13701E-04168220   0.100E-01    0.386E-02
DAV:   5    -0.724069551113E+02    0.87358E-04   -0.39779E-05107136   0.905E-02    0.243E-02
DAV:   6    -0.724069989880E+02   -0.43877E-04   -0.40334E-05 87052   0.469E-02    0.153E-02
DAV:   7    -0.724070026963E+02   -0.37083E-05   -0.62906E-06 77748   0.216E-02
   5 F= -.72407003E+02 E0= -.72407003E+02  d E =-.473802E-02  mag=    -0.0000
       N       E                     dE             d eps       ncg     rms          rms(c)
DAV:   1    -0.724247684674E+02   -0.17769E-01   -0.10940E+00153816   0.842E+00    0.126E+00
DAV:   2    -0.724138114794E+02    0.10957E-01   -0.85444E-02158356   0.384E+00    0.118E+00
DAV:   3    -0.724094922373E+02    0.43192E-02   -0.84594E-03165512   0.131E+00    0.529E-01
DAV:   4    -0.724084355120E+02    0.10567E-02   -0.55852E-03163560   0.519E-01    0.205E-01
DAV:   5    -0.724087682605E+02   -0.33275E-03   -0.15272E-03180932   0.480E-01    0.131E-01
DAV:   6    -0.724086693882E+02    0.98872E-04   -0.10956E-03166320   0.248E-01    0.102E-01
DAV:   7    -0.724087156799E+02   -0.46292E-04   -0.20844E-04169196   0.135E-01    0.884E-02
DAV:   8    -0.724088600213E+02   -0.14434E-03   -0.74213E-04163104   0.246E-01    0.634E-02
DAV:   9    -0.724088556797E+02    0.43416E-05   -0.60787E-04166872   0.227E-01    0.407E-02
DAV:  10    -0.724088693155E+02   -0.13636E-04   -0.16994E-04166136   0.970E-02    0.329E-02
DAV:  11    -0.724088718026E+02   -0.24871E-05   -0.69641E-05 84812   0.580E-02
   6 F= -.72408872E+02 E0= -.72408872E+02  d E =-.186911E-02  mag=    -0.0000
       N       E                     dE             d eps       ncg     rms          rms(c)
DAV:   1    -0.724114300467E+02   -0.25607E-02   -0.17086E-01153992   0.334E+00    0.502E-01
DAV:   2    -0.724101080673E+02    0.13220E-02   -0.13548E-02158440   0.154E+00    0.473E-01
DAV:   3    -0.724089165517E+02    0.11915E-02   -0.13799E-03163872   0.528E-01    0.210E-01
DAV:   4    -0.724088149526E+02    0.10160E-03   -0.10906E-03166784   0.218E-01    0.907E-02
DAV:   5    -0.724089856836E+02   -0.17073E-03   -0.34598E-04176672   0.202E-01    0.662E-02
DAV:   6    -0.724089572636E+02    0.28420E-04   -0.31285E-04152880   0.120E-01    0.592E-02
DAV:   7    -0.724089819174E+02   -0.24654E-04   -0.88017E-05 96120   0.705E-02    0.558E-02
DAV:   8    -0.724090632786E+02   -0.81361E-04   -0.47039E-04117908   0.144E-01    0.521E-02
DAV:   9    -0.724090837799E+02   -0.20501E-04   -0.34513E-04128924   0.116E-01    0.501E-02
DAV:  10    -0.724091022582E+02   -0.18478E-04   -0.19377E-04119112   0.792E-02    0.496E-02
DAV:  11    -0.724091336412E+02   -0.31383E-04   -0.21034E-04 95360   0.761E-02    0.513E-02
DAV:  12    -0.724090204265E+02    0.11321E-03   -0.52690E-03155636   0.428E-01    0.499E-02
DAV:  13    -0.724090011052E+02    0.19321E-04   -0.13349E-02157956   0.682E-01    0.561E-02
DAV:  14    -0.724090073355E+02   -0.62303E-05   -0.21726E-03219692   0.272E-01    0.600E-02
DAV:  15    -0.724090207837E+02   -0.13448E-04   -0.15218E-03156156   0.274E-01    0.563E-02
DAV:  16    -0.724092511977E+02   -0.23041E-03   -0.66057E-03158184   0.505E-01    0.522E-02
DAV:  17    -0.724096912896E+02   -0.44009E-03   -0.25722E-02158252   0.962E-01    0.654E-02
DAV:  18    -0.724109985265E+02   -0.13072E-02   -0.46106E-02161032   0.127E+00    0.108E-01
DAV:  19    -0.724109474060E+02    0.51121E-04   -0.15711E-03156616   0.304E-01    0.913E-02
DAV:  20    -0.724109392470E+02    0.81589E-05   -0.76855E-05162156   0.463E-02
   7 F= -.72410939E+02 E0= -.72410939E+02  d E =-.393655E-02  mag=    -0.0000
       N       E                     dE             d eps       ncg     rms          rms(c)
DAV:   1    -0.724201650955E+02   -0.92177E-02   -0.68640E-01153920   0.669E+00    0.101E+00
DAV:   2    -0.724121357629E+02    0.80293E-02   -0.54802E-02158536   0.307E+00    0.952E-01
DAV:   3    -0.724096818114E+02    0.24540E-02   -0.55289E-03167756   0.106E+00    0.426E-01
DAV:   4    -0.724092289077E+02    0.45290E-03   -0.42588E-03164868   0.466E-01    0.182E-01
DAV:   5    -0.724093345749E+02   -0.10567E-03   -0.13319E-03190096   0.424E-01    0.127E-01
DAV:   6    -0.724093018792E+02    0.32696E-04   -0.12290E-03184292   0.260E-01    0.108E-01
DAV:   7    -0.724094221106E+02   -0.12023E-03   -0.32272E-04172744   0.140E-01    0.984E-02
DAV:   8    -0.724097139375E+02   -0.29183E-03   -0.21495E-03170424   0.347E-01    0.820E-02
DAV:   9    -0.724098880984E+02   -0.17416E-03   -0.34666E-03163564   0.434E-01    0.635E-02
DAV:  10    -0.724099642794E+02   -0.76181E-04   -0.14821E-03216532   0.239E-01    0.530E-02
DAV:  11    -0.724100968255E+02   -0.13255E-03   -0.87979E-04177184   0.162E-01    0.488E-02
DAV:  12    -0.724103251275E+02   -0.22830E-03   -0.27399E-03165160   0.302E-01    0.450E-02
DAV:  13    -0.724104657479E+02   -0.14062E-03   -0.31649E-03180112   0.349E-01    0.361E-02
DAV:  14    -0.724103296919E+02    0.13606E-03   -0.21140E-04157884   0.101E-01    0.285E-02
DAV:  15    -0.724103601443E+02   -0.30452E-04   -0.88913E-05 91468   0.759E-02    0.264E-02
DAV:  16    -0.724103896851E+02   -0.29541E-04   -0.12816E-04 90628   0.767E-02    0.228E-02
DAV:  17    -0.724104084905E+02   -0.18805E-04   -0.66209E-04148464   0.165E-01    0.173E-02
DAV:  18    -0.724104456608E+02   -0.37170E-04   -0.41073E-04140620   0.134E-01    0.104E-02
DAV:  19    -0.724104203278E+02    0.25333E-04   -0.23814E-05117476   0.388E-02    0.505E-03
DAV:  20    -0.724104360061E+02   -0.15678E-04   -0.60356E-06 77368   0.175E-02    0.311E-03
DAV:  21    -0.724104437206E+02   -0.77145E-05   -0.35481E-06 77196   0.116E-02
   8 F= -.72410444E+02 E0= -.72410444E+02  d E =-.344102E-02  mag=    -0.0000
       N       E                     dE             d eps       ncg     rms          rms(c)
DAV:   1    -0.724163300872E+02   -0.58941E-02   -0.40517E-01153976   0.516E+00    0.772E-01
DAV:   2    -0.724110869524E+02    0.52431E-02   -0.32133E-02158400   0.236E+00    0.735E-01
DAV:   3    -0.724116389563E+02   -0.55200E-03   -0.31746E-03164560   0.817E-01    0.318E-01
DAV:   4    -0.724111740515E+02    0.46490E-03   -0.21528E-03161544   0.304E-01    0.127E-01
DAV:   5    -0.724108733162E+02    0.30074E-03   -0.54611E-04187152   0.303E-01    0.788E-02
DAV:   6    -0.724109921106E+02   -0.11879E-03   -0.45292E-04166420   0.153E-01    0.642E-02
DAV:   7    -0.724109727014E+02    0.19409E-04   -0.73917E-05109660   0.787E-02    0.561E-02
DAV:   8    -0.724109293589E+02    0.43342E-04   -0.32314E-04144644   0.166E-01    0.407E-02
DAV:   9    -0.724109685712E+02   -0.39212E-04   -0.39438E-04161696   0.206E-01    0.185E-02
DAV:  10    -0.724109393452E+02    0.29226E-04   -0.62896E-05149276   0.566E-02    0.113E-02
DAV:  11    -0.724109556495E+02   -0.16304E-04   -0.68605E-06 77912   0.290E-02    0.651E-03
DAV:  12    -0.724109529209E+02    0.27286E-05   -0.40784E-06 77584   0.146E-02
   9 F= -.72410953E+02 E0= -.72410953E+02  d E =-.395022E-02  mag=    -0.0000
       N       E                     dE             d eps       ncg     rms          rms(c)
DAV:   1    -0.724128753895E+02   -0.19197E-02   -0.90456E-01152768   0.735E+00    0.717E-01
DAV:   2    -0.724138273935E+02   -0.95200E-03   -0.49364E-02157916   0.196E+00    0.493E-01
DAV:   3    -0.724124231925E+02    0.14042E-02   -0.38089E-03170776   0.731E-01    0.400E-01
DAV:   4    -0.724125514483E+02   -0.12826E-03   -0.19265E-03183504   0.354E-01    0.133E-01
DAV:   5    -0.724126436225E+02   -0.92174E-04   -0.67637E-04164204   0.225E-01    0.101E-01
DAV:   6    -0.724126459793E+02   -0.23568E-05   -0.20562E-04153220   0.127E-01    0.818E-02
DAV:   7    -0.724127191250E+02   -0.73146E-04   -0.26755E-04124732   0.137E-01    0.648E-02
DAV:   8    -0.724127890765E+02   -0.69952E-04   -0.44679E-04153912   0.185E-01    0.416E-02
DAV:   9    -0.724127546967E+02    0.34380E-04   -0.11739E-04158452   0.105E-01    0.238E-02
DAV:  10    -0.724128022201E+02   -0.47523E-04   -0.82764E-05 94280   0.758E-02    0.146E-02
DAV:  11    -0.724128101057E+02   -0.78857E-05   -0.51200E-05109172   0.518E-02
  10 F= -.72412810E+02 E0= -.72412810E+02  d E =-.185718E-02  mag=    -0.0000
       N       E                     dE             d eps       ncg     rms          rms(c)
DAV:   1    -0.724131881384E+02   -0.38592E-03   -0.11377E-01152772   0.261E+00    0.254E-01
DAV:   2    -0.724133290191E+02   -0.14088E-03   -0.62443E-03158176   0.703E-01    0.177E-01
DAV:   3    -0.724130710695E+02    0.25795E-03   -0.50152E-04170836   0.261E-01    0.143E-01
DAV:   4    -0.724131893836E+02   -0.11831E-03   -0.29085E-04177940   0.129E-01    0.505E-02
DAV:   5    -0.724132041286E+02   -0.14745E-04   -0.11424E-04138244   0.879E-02    0.409E-02
DAV:   6    -0.724132002892E+02    0.38393E-05   -0.38345E-05 81376   0.515E-02
  11 F= -.72413200E+02 E0= -.72413200E+02  d E =-.224737E-02  mag=    -0.0000
       N       E                     dE             d eps       ncg     rms          rms(c)
DAV:   1    -0.724136913286E+02   -0.48720E-03   -0.45526E-01152768   0.522E+00    0.513E-01
DAV:   2    -0.724142142796E+02   -0.52295E-03   -0.25051E-02158172   0.140E+00    0.356E-01
DAV:   3    -0.724134550006E+02    0.75928E-03   -0.20864E-03170856   0.524E-01    0.289E-01
DAV:   4    -0.724136520772E+02   -0.19708E-03   -0.13729E-03196968   0.267E-01    0.110E-01
DAV:   5    -0.724137285252E+02   -0.76448E-04   -0.58513E-04164868   0.185E-01    0.930E-02
DAV:   6    -0.724137403345E+02   -0.11809E-04   -0.19105E-04145768   0.105E-01    0.854E-02
DAV:   7    -0.724137976070E+02   -0.57273E-04   -0.25905E-04109784   0.114E-01    0.787E-02
DAV:   8    -0.724139083235E+02   -0.11072E-03   -0.11649E-03167948   0.251E-01    0.660E-02
DAV:   9    -0.724139100350E+02   -0.17115E-05   -0.10888E-03175904   0.253E-01    0.513E-02
DAV:  10    -0.724140534431E+02   -0.14341E-03   -0.26786E-03169568   0.393E-01    0.334E-02
DAV:  11    -0.724140969369E+02   -0.43494E-04   -0.15804E-03221288   0.295E-01    0.229E-02
DAV:  12    -0.724140468687E+02    0.50068E-04   -0.11961E-04155056   0.848E-02    0.178E-02
DAV:  13    -0.724140434930E+02    0.33757E-05   -0.45917E-06 78392   0.213E-02
  12 F= -.72414043E+02 E0= -.72414043E+02  d E =-.309057E-02  mag=    -0.0000
       N       E                     dE             d eps       ncg     rms          rms(c)
DAV:   1    -0.724148686187E+02   -0.82175E-03   -0.18207E+00152768   0.104E+01    0.102E+00
DAV:   2    -0.724166821815E+02   -0.18136E-02   -0.10005E-01157852   0.281E+00    0.703E-01
DAV:   3    -0.724138092787E+02    0.28729E-02   -0.75814E-03170988   0.101E+00    0.561E-01
DAV:   4    -0.724138691743E+02   -0.59896E-04   -0.43328E-03185740   0.498E-01    0.188E-01
DAV:   5    -0.724140466648E+02   -0.17749E-03   -0.18224E-03164916   0.334E-01    0.153E-01
DAV:   6    -0.724140827583E+02   -0.36094E-04   -0.53088E-04170024   0.192E-01    0.135E-01
DAV:   7    -0.724141891256E+02   -0.10637E-03   -0.59736E-04156384   0.194E-01    0.117E-01
DAV:   8    -0.724143303093E+02   -0.14118E-03   -0.16656E-03177896   0.354E-01    0.795E-02
DAV:   9    -0.724143011420E+02    0.29167E-04   -0.76206E-04205364   0.276E-01    0.441E-02
DAV:  10    -0.724144132908E+02   -0.11215E-03   -0.39976E-04189508   0.160E-01    0.304E-02
DAV:  11    -0.724144226799E+02   -0.93892E-05   -0.14898E-04141988   0.861E-02    0.255E-02
DAV:  12    -0.724144241230E+02   -0.14430E-05   -0.63835E-05 84616   0.544E-02
  13 F= -.72414424E+02 E0= -.72414424E+02  d E =-.347120E-02  mag=    -0.0000
       N       E                     dE             d eps       ncg     rms          rms(c)
DAV:   1    -0.724145923968E+02   -0.16972E-03   -0.40147E-01152772   0.490E+00    0.482E-01
DAV:   2    -0.724149924613E+02   -0.40006E-03   -0.22193E-02158192   0.134E+00    0.339E-01
DAV:   3    -0.724147859046E+02    0.20656E-03   -0.16330E-03170628   0.489E-01    0.267E-01
DAV:   4    -0.724143500686E+02    0.43584E-03   -0.93870E-04180336   0.231E-01    0.829E-02
DAV:   5    -0.724144092358E+02   -0.59167E-04   -0.43004E-04164024   0.170E-01    0.672E-02
DAV:   6    -0.724144415606E+02   -0.32325E-04   -0.11015E-04128832   0.911E-02    0.602E-02
DAV:   7    -0.724144420872E+02   -0.52664E-06   -0.73775E-05 80508   0.692E-02
  14 F= -.72414442E+02 E0= -.72414442E+02  d E =-.348917E-02  mag=    -0.0000
       N       E                     dE             d eps       ncg     rms          rms(c)
DAV:   1    -0.724145132171E+02   -0.71656E-04   -0.41557E-02152788   0.158E+00    0.159E-01
DAV:   2    -0.724146009123E+02   -0.87695E-04   -0.23082E-03157372   0.439E-01    0.116E-01
DAV:   3    -0.724144317102E+02    0.16920E-03   -0.18274E-04177864   0.162E-01    0.892E-02
DAV:   4    -0.724144987996E+02   -0.67089E-04   -0.76899E-05137044   0.914E-02    0.245E-02
DAV:   5    -0.724145112768E+02   -0.12477E-04   -0.40697E-05100900   0.578E-02    0.164E-02
DAV:   6    -0.724145005637E+02    0.10713E-04   -0.95092E-06 77352   0.309E-02    0.119E-02
DAV:   7    -0.724145020990E+02   -0.15352E-05   -0.39132E-06 76836   0.167E-02
  15 F= -.72414502E+02 E0= -.72414502E+02  d E =-.354918E-02  mag=    -0.0000
       N       E                     dE             d eps       ncg     rms          rms(c)
DAV:   1    -0.724184181446E+02   -0.39176E-02   -0.11763E+00152784   0.993E+00    0.898E-01
DAV:   2    -0.724186508423E+02   -0.23270E-03   -0.91264E-02153404   0.315E+00    0.841E-01
DAV:   3    -0.724163249439E+02    0.23259E-02   -0.70310E-03172220   0.954E-01    0.401E-01
DAV:   4    -0.724156463051E+02    0.67864E-03   -0.24576E-03170036   0.390E-01    0.136E-01
DAV:   5    -0.724159022826E+02   -0.25598E-03   -0.51610E-04174864   0.247E-01    0.776E-02
DAV:   6    -0.724158408552E+02    0.61427E-04   -0.41070E-04176980   0.163E-01    0.577E-02
DAV:   7    -0.724158512772E+02   -0.10422E-04   -0.10435E-04117800   0.825E-02    0.485E-02
DAV:   8    -0.724159025088E+02   -0.51232E-04   -0.26022E-04112716   0.143E-01    0.345E-02
DAV:   9    -0.724159144732E+02   -0.11964E-04   -0.16723E-04114496   0.118E-01    0.258E-02
DAV:  10    -0.724159168702E+02   -0.23970E-05   -0.69002E-05112556   0.671E-02
  16 F= -.72415917E+02 E0= -.72415917E+02  d E =-.141477E-02  mag=    -0.0000
       N       E                     dE             d eps       ncg     rms          rms(c)
DAV:   1    -0.724193020129E+02   -0.33875E-02   -0.13259E+00152784   0.105E+01    0.955E-01
DAV:   2    -0.724193213690E+02   -0.19356E-04   -0.10275E-01153412   0.334E+00    0.893E-01
DAV:   3    -0.724168099295E+02    0.25114E-02   -0.79280E-03172296   0.101E+00    0.427E-01
DAV:   4    -0.724160564037E+02    0.75353E-03   -0.27794E-03170060   0.416E-01    0.144E-01
DAV:   5    -0.724163308521E+02   -0.27445E-03   -0.59031E-04175368   0.263E-01    0.828E-02
DAV:   6    -0.724162762462E+02    0.54606E-04   -0.47601E-04177268   0.175E-01    0.621E-02
DAV:   7    -0.724162956282E+02   -0.19382E-04   -0.13085E-04135984   0.907E-02    0.529E-02
DAV:   8    -0.724163587937E+02   -0.63166E-04   -0.30659E-04114036   0.149E-01    0.406E-02
DAV:   9    -0.724163889151E+02   -0.30121E-04   -0.23940E-04127448   0.134E-01    0.310E-02
DAV:  10    -0.724163998522E+02   -0.10937E-04   -0.13976E-04129164   0.928E-02    0.233E-02
DAV:  11    -0.724164311837E+02   -0.31332E-04   -0.10690E-04 88904   0.648E-02    0.200E-02
DAV:  12    -0.724164484252E+02   -0.17241E-04   -0.76972E-05 85264   0.522E-02    0.188E-02
DAV:  13    -0.724164734765E+02   -0.25051E-04   -0.10780E-04 86960   0.648E-02    0.171E-02
DAV:  14    -0.724165180879E+02   -0.44611E-04   -0.48967E-04139792   0.143E-01    0.140E-02
DAV:  15    -0.724165663520E+02   -0.48264E-04   -0.41798E-04137516   0.129E-01    0.109E-02
DAV:  16    -0.724165672021E+02   -0.85017E-06   -0.45610E-05126952   0.438E-02
  17 F= -.72416567E+02 E0= -.72416567E+02  d E =-.206510E-02  mag=    -0.0000
       N       E                     dE             d eps       ncg     rms          rms(c)
DAV:   1    -0.724117545455E+02    0.48118E-02   -0.94270E-01156152   0.947E+00    0.443E-01
DAV:   2    -0.724186935852E+02   -0.69390E-02   -0.71112E-02160004   0.200E+00    0.346E-01
DAV:   3    -0.724180024640E+02    0.69112E-03   -0.20925E-03173340   0.441E-01    0.214E-01
DAV:   4    -0.724179121180E+02    0.90346E-04   -0.40156E-04173448   0.215E-01    0.908E-02
DAV:   5    -0.724178991602E+02    0.12958E-04   -0.32753E-04169520   0.154E-01    0.427E-02
DAV:   6    -0.724179145897E+02   -0.15429E-04   -0.10808E-04156664   0.921E-02    0.319E-02
DAV:   7    -0.724179248384E+02   -0.10249E-04   -0.33389E-05 81420   0.485E-02    0.242E-02
DAV:   8    -0.724179399751E+02   -0.15137E-04   -0.21189E-05 80176   0.460E-02    0.180E-02
DAV:   9    -0.724179553204E+02   -0.15345E-04   -0.40351E-05 80692   0.624E-02    0.101E-02
DAV:  10    -0.724179674274E+02   -0.12107E-04   -0.11368E-05 78212   0.272E-02    0.860E-03
DAV:  11    -0.724179729521E+02   -0.55247E-05   -0.60532E-06 77752   0.158E-02
  18 F= -.72417973E+02 E0= -.72417973E+02  d E =-.140575E-02  mag=    -0.0000
       N       E                     dE             d eps       ncg     rms          rms(c)
DAV:   1    -0.724175747320E+02    0.39270E-03   -0.10115E-01156088   0.310E+00    0.146E-01
DAV:   2    -0.724184602974E+02   -0.88557E-03   -0.76521E-03160468   0.658E-01    0.115E-01
DAV:   3    -0.724182680426E+02    0.19225E-03   -0.23158E-04173320   0.148E-01    0.709E-02
DAV:   4    -0.724182871209E+02   -0.19078E-04   -0.46949E-05130488   0.726E-02    0.311E-02
DAV:   5    -0.724182904485E+02   -0.33276E-05   -0.46504E-05 95444   0.568E-02    0.162E-02
DAV:   6    -0.724182947869E+02   -0.43384E-05   -0.15260E-05 79752   0.342E-02
  19 F= -.72418295E+02 E0= -.72418295E+02  d E =-.172758E-02  mag=    -0.0000
       N       E                     dE             d eps       ncg     rms          rms(c)
DAV:   1    -0.724160396520E+02    0.22508E-02   -0.40449E-01156048   0.620E+00    0.292E-01
DAV:   2    -0.724191743571E+02   -0.31347E-02   -0.30552E-02160236   0.131E+00    0.228E-01
DAV:   3    -0.724187622796E+02    0.41208E-03   -0.91288E-04173348   0.293E-01    0.141E-01
DAV:   4    -0.724187550798E+02    0.71998E-05   -0.19163E-04175896   0.143E-01    0.614E-02
DAV:   5    -0.724187575371E+02   -0.24573E-05   -0.16549E-04165404   0.106E-01    0.317E-02
DAV:   6    -0.724187688027E+02   -0.11266E-04   -0.52640E-05116596   0.627E-02    0.251E-02
DAV:   7    -0.724187793667E+02   -0.10564E-04   -0.23642E-05 79916   0.386E-02    0.203E-02
DAV:   8    -0.724187960977E+02   -0.16731E-04   -0.20330E-05 78812   0.385E-02    0.163E-02
DAV:   9    -0.724188176715E+02   -0.21574E-04   -0.63197E-05 85584   0.661E-02    0.114E-02
DAV:  10    -0.724188300589E+02   -0.12387E-04   -0.17840E-05 77820   0.316E-02    0.103E-02
DAV:  11    -0.724188391088E+02   -0.90500E-05   -0.13359E-05 77412   0.229E-02
  20 F= -.72418839E+02 E0= -.72418839E+02  d E =-.227191E-02  mag=    -0.0000
       N       E                     dE             d eps       ncg     rms          rms(c)
DAV:   1    -0.724087550683E+02    0.10075E-01   -0.16185E+00156104   0.124E+01    0.583E-01
DAV:   2    -0.724203631360E+02   -0.11608E-01   -0.12214E-01159944   0.262E+00    0.455E-01
DAV:   3    -0.724193838710E+02    0.97927E-03   -0.36630E-03173380   0.582E-01    0.283E-01
DAV:   4    -0.724191882282E+02    0.19564E-03   -0.74999E-04176772   0.287E-01    0.123E-01
DAV:   5    -0.724191734875E+02    0.14741E-04   -0.63213E-04172448   0.213E-01    0.605E-02
DAV:   6    -0.724192051113E+02   -0.31624E-04   -0.20255E-04161488   0.125E-01    0.464E-02
DAV:   7    -0.724192282920E+02   -0.23181E-04   -0.77312E-05 92736   0.726E-02    0.360E-02
DAV:   8    -0.724192610931E+02   -0.32801E-04   -0.70668E-05 90532   0.768E-02    0.270E-02
DAV:   9    -0.724192869809E+02   -0.25888E-04   -0.10837E-04101244   0.903E-02    0.184E-02
DAV:  10    -0.724193106991E+02   -0.23718E-04   -0.44780E-05 87204   0.560E-02    0.134E-02
DAV:  11    -0.724193189933E+02   -0.82942E-05   -0.23965E-05 78228   0.341E-02
  21 F= -.72419319E+02 E0= -.72419319E+02  d E =-.275179E-02  mag=    -0.0000
       N       E                     dE             d eps       ncg     rms          rms(c)
DAV:   1    -0.724176661773E+02    0.16445E-02   -0.13018E+00152768   0.956E+00    0.635E-01
DAV:   2    -0.724221012835E+02   -0.44351E-02   -0.76722E-02154144   0.250E+00    0.606E-01
DAV:   3    -0.724207579032E+02    0.13434E-02   -0.43449E-03172248   0.709E-01    0.296E-01
DAV:   4    -0.724203259200E+02    0.43198E-03   -0.11519E-03178048   0.327E-01    0.111E-01
DAV:   5    -0.724204726089E+02   -0.14669E-03   -0.43748E-04174140   0.201E-01    0.616E-02
DAV:   6    -0.724204019419E+02    0.70667E-04   -0.19892E-04167684   0.118E-01    0.409E-02
DAV:   7    -0.724204106404E+02   -0.86985E-05   -0.56833E-05 96352   0.604E-02
  22 F= -.72420411E+02 E0= -.72420411E+02  d E =-.109165E-02  mag=    -0.0000
       N       E                     dE             d eps       ncg     rms          rms(c)
DAV:   1    -0.724132906675E+02    0.71113E-02   -0.47017E+00152768   0.181E+01    0.121E+00
DAV:   2    -0.724253895529E+02   -0.12099E-01   -0.27569E-01154344   0.470E+00    0.113E+00
DAV:   3    -0.724224218639E+02    0.29677E-02   -0.15309E-02172372   0.132E+00    0.566E-01
DAV:   4    -0.724209930474E+02    0.14288E-02   -0.39308E-03177916   0.599E-01    0.210E-01
DAV:   5    -0.724212027715E+02   -0.20972E-03   -0.15443E-03173976   0.360E-01    0.119E-01
DAV:   6    -0.724211054021E+02    0.97369E-04   -0.63780E-04170164   0.208E-01    0.783E-02
DAV:   7    -0.724211207044E+02   -0.15302E-04   -0.21013E-04142292   0.115E-01    0.564E-02
DAV:   8    -0.724212026516E+02   -0.81947E-04   -0.19607E-04107928   0.122E-01    0.351E-02
DAV:   9    -0.724211965725E+02    0.60791E-05   -0.75713E-05107356   0.749E-02
  23 F= -.72421197E+02 E0= -.72421197E+02  d E =-.187758E-02  mag=     0.0000
       N       E                     dE             d eps       ncg     rms          rms(c)
DAV:   1    -0.724190691493E+02    0.21335E-02   -0.13426E+00152776   0.105E+01    0.663E-01
DAV:   2    -0.724240698661E+02   -0.50007E-02   -0.88077E-02154156   0.263E+00    0.603E-01
DAV:   3    -0.724226051269E+02    0.14647E-02   -0.48549E-03172556   0.716E-01    0.308E-01
DAV:   4    -0.724222444505E+02    0.36068E-03   -0.10704E-03169892   0.293E-01    0.934E-02
DAV:   5    -0.724224559305E+02   -0.21148E-03   -0.46022E-04169728   0.167E-01    0.587E-02
DAV:   6    -0.724223827984E+02    0.73132E-04   -0.18063E-04162128   0.101E-01    0.472E-02
DAV:   7    -0.724223718650E+02    0.10933E-04   -0.63052E-05 92820   0.617E-02    0.395E-02
DAV:   8    -0.724223891015E+02   -0.17236E-04   -0.17033E-04 97400   0.115E-01    0.252E-02
DAV:   9    -0.724223567990E+02    0.32302E-04   -0.67210E-05 96056   0.718E-02    0.172E-02
DAV:  10    -0.724223509919E+02    0.58071E-05   -0.58561E-05 86624   0.565E-02
  24 F= -.72422351E+02 E0= -.72422351E+02  d E =-.115442E-02  mag=     0.0000
       N       E                     dE             d eps       ncg     rms          rms(c)
DAV:   1    -0.724154880411E+02    0.68688E-02   -0.35283E+00152776   0.170E+01    0.107E+00
DAV:   2    -0.724260675450E+02   -0.10580E-01   -0.23129E-01154280   0.423E+00    0.958E-01
DAV:   3    -0.724235647076E+02    0.25028E-02   -0.12520E-02172200   0.114E+00    0.502E-01
DAV:   4    -0.724227335625E+02    0.83115E-03   -0.29779E-03170564   0.485E-01    0.162E-01
DAV:   5    -0.724230796829E+02   -0.34612E-03   -0.16016E-03168260   0.293E-01    0.117E-01
DAV:   6    -0.724229952895E+02    0.84393E-04   -0.61674E-04168112   0.175E-01    0.981E-02
DAV:   7    -0.724229763200E+02    0.18970E-04   -0.31442E-04132112   0.127E-01    0.877E-02
DAV:   8    -0.724230364174E+02   -0.60097E-04   -0.12661E-03177780   0.286E-01    0.640E-02
DAV:   9    -0.724229723039E+02    0.64113E-04   -0.76704E-04180420   0.229E-01    0.452E-02
DAV:  10    -0.724229463937E+02    0.25910E-04   -0.55217E-04183332   0.175E-01    0.294E-02
DAV:  11    -0.724229421295E+02    0.42642E-05   -0.45023E-04144196   0.148E-01    0.216E-02
DAV:  12    -0.724229294055E+02    0.12724E-04   -0.10609E-04154120   0.674E-02    0.166E-02
DAV:  13    -0.724229199272E+02    0.94783E-05   -0.22383E-05 85828   0.381E-02
  25 F= -.72422920E+02 E0= -.72422920E+02  d E =-.172335E-02  mag=     0.0000
       N       E                     dE             d eps       ncg     rms          rms(c)
DAV:   1    -0.724176548682E+02    0.52745E-02   -0.11904E+00153128   0.104E+01    0.499E-01
DAV:   2    -0.724250912061E+02   -0.74363E-02   -0.83481E-02159760   0.226E+00    0.415E-01
DAV:   3    -0.724241896083E+02    0.90160E-03   -0.30181E-03173044   0.555E-01    0.247E-01
DAV:   4    -0.724240588404E+02    0.13077E-03   -0.59488E-04171220   0.240E-01    0.933E-02
DAV:   5    -0.724241332460E+02   -0.74406E-04   -0.62043E-04169628   0.178E-01    0.630E-02
DAV:   6    -0.724241064806E+02    0.26765E-04   -0.17505E-04158292   0.103E-01    0.520E-02
DAV:   7    -0.724240977619E+02    0.87188E-05   -0.67612E-05 90324   0.646E-02
  26 F= -.72424098E+02 E0= -.72424098E+02  d E =-.117783E-02  mag=     0.0000
       N       E                     dE             d eps       ncg     rms          rms(c)
DAV:   1    -0.724230015589E+02    0.11049E-02   -0.25013E-01153200   0.475E+00    0.231E-01
DAV:   2    -0.724247803105E+02   -0.17788E-02   -0.17620E-02160108   0.103E+00    0.191E-01
DAV:   3    -0.724243925761E+02    0.38773E-03   -0.64393E-04173096   0.253E-01    0.116E-01
DAV:   4    -0.724243886438E+02    0.39323E-05   -0.16461E-04171488   0.112E-01    0.481E-02
DAV:   5    -0.724244166239E+02   -0.27980E-04   -0.17281E-04122020   0.908E-02    0.367E-02
DAV:   6    -0.724243980877E+02    0.18536E-04   -0.48704E-05 90116   0.543E-02    0.320E-02
DAV:   7    -0.724243867063E+02    0.11381E-04   -0.36453E-05 80828   0.488E-02    0.268E-02
DAV:   8    -0.724243808910E+02    0.58153E-05   -0.11229E-04 94272   0.978E-02    0.159E-02
DAV:   9    -0.724243602838E+02    0.20607E-04   -0.33873E-05 88148   0.542E-02    0.979E-03
DAV:  10    -0.724243584088E+02    0.18749E-05   -0.92599E-06 85208   0.244E-02
  27 F= -.72424358E+02 E0= -.72424358E+02  d E =-.143848E-02  mag=     0.0000
       N       E                     dE             d eps       ncg     rms          rms(c)
DAV:   1    -0.724191784820E+02    0.51818E-02   -0.10003E+00153160   0.949E+00    0.457E-01
DAV:   2    -0.724254886434E+02   -0.63102E-02   -0.70055E-02159712   0.207E+00    0.379E-01
DAV:   3    -0.724246666617E+02    0.82198E-03   -0.25264E-03173104   0.508E-01    0.225E-01
DAV:   4    -0.724245708722E+02    0.95789E-04   -0.49770E-04170836   0.215E-01    0.831E-02
DAV:   5    -0.724246372979E+02   -0.66426E-04   -0.49331E-04167956   0.157E-01    0.563E-02
DAV:   6    -0.724246101005E+02    0.27197E-04   -0.13029E-04142924   0.909E-02    0.456E-02
DAV:   7    -0.724246013056E+02    0.87948E-05   -0.54734E-05 83728   0.604E-02
  28 F= -.72424601E+02 E0= -.72424601E+02  d E =-.168138E-02  mag=     0.0000
       N       E                     dE             d eps       ncg     rms          rms(c)
DAV:   1    -0.724241106506E+02    0.49945E-03   -0.81519E-02153020   0.271E+00    0.134E-01
DAV:   2    -0.724244124493E+02   -0.30180E-03   -0.57598E-03160000   0.603E-01    0.117E-01
DAV:   3    -0.724246126914E+02   -0.20024E-03   -0.22654E-04172984   0.157E-01    0.677E-02
DAV:   4    -0.724245667809E+02    0.45911E-04   -0.38794E-05136768   0.725E-02    0.271E-02
DAV:   5    -0.724245366540E+02    0.30127E-04   -0.27891E-05 86320   0.528E-02    0.145E-02
DAV:   6    -0.724245541409E+02   -0.17487E-04   -0.11666E-05 78736   0.306E-02    0.952E-03
DAV:   7    -0.724245551733E+02   -0.10324E-05   -0.36001E-06 77288   0.158E-02
  29 F= -.72424555E+02 E0= -.72424555E+02  d E =-.163525E-02  mag=     0.0000
       N       E                     dE             d eps       ncg     rms          rms(c)
DAV:   1    -0.724203199142E+02    0.42342E-02   -0.55216E-01166208   0.854E+00    0.337E-01
DAV:   2    -0.724257383042E+02   -0.54184E-02   -0.53506E-02160684   0.167E+00    0.246E-01
DAV:   3    -0.724253318231E+02    0.40648E-03   -0.16172E-03173148   0.387E-01    0.159E-01
DAV:   4    -0.724253653175E+02   -0.33494E-04   -0.22134E-04173488   0.140E-01    0.700E-02
DAV:   5    -0.724253421461E+02    0.23171E-04   -0.19231E-04165788   0.113E-01    0.346E-02
DAV:   6    -0.724253470277E+02   -0.48816E-05   -0.65956E-05113888   0.684E-02
  30 F= -.72425347E+02 E0= -.72425347E+02  d E =-.791854E-03  mag=     0.0000
       N       E                     dE             d eps       ncg     rms          rms(c)
DAV:   1    -0.724250773012E+02    0.26484E-03   -0.43362E-02165992   0.239E+00    0.977E-02
DAV:   2    -0.724255807028E+02   -0.50340E-03   -0.42076E-03162932   0.468E-01    0.717E-02
DAV:   3    -0.724254671507E+02    0.11355E-03   -0.13023E-04166128   0.110E-01    0.482E-02
DAV:   4    -0.724254932422E+02   -0.26091E-04   -0.25832E-05102704   0.439E-02    0.243E-02
DAV:   5    -0.724254931995E+02    0.42706E-07   -0.36874E-05 85652   0.459E-02    0.160E-02
DAV:   6    -0.724254925181E+02    0.68137E-06   -0.12510E-05 80776   0.271E-02
  31 F= -.72425493E+02 E0= -.72425493E+02  d E =-.937345E-03  mag=     0.0000
       N       E                     dE             d eps       ncg     rms          rms(c)
DAV:   1    -0.724240501458E+02    0.14431E-02   -0.17327E-01166048   0.479E+00    0.189E-01
DAV:   2    -0.724258576232E+02   -0.18075E-02   -0.16801E-02161536   0.939E-01    0.139E-01
DAV:   3    -0.724256301369E+02    0.22749E-03   -0.50921E-04173072   0.218E-01    0.892E-02
DAV:   4    -0.724256680729E+02   -0.37936E-04   -0.73084E-05163688   0.783E-02    0.392E-02
DAV:   5    -0.724256601890E+02    0.78839E-05   -0.67742E-05103404   0.643E-02    0.211E-02
DAV:   6    -0.724256605004E+02   -0.31142E-06   -0.27420E-05 83368   0.423E-02
  32 F= -.72425661E+02 E0= -.72425661E+02  d E =-.110533E-02  mag=     0.0000
       N       E                     dE             d eps       ncg     rms          rms(c)
DAV:   1    -0.724243156373E+02    0.13446E-02   -0.42106E-01165936   0.740E+00    0.438E-01
DAV:   2    -0.724269248570E+02   -0.26092E-02   -0.41510E-02161924   0.177E+00    0.370E-01
DAV:   3    -0.724260946696E+02    0.83019E-03   -0.24962E-03171424   0.526E-01    0.239E-01
DAV:   4    -0.724260405074E+02    0.54162E-04   -0.47823E-04170752   0.187E-01    0.704E-02
DAV:   5    -0.724261231277E+02   -0.82620E-04   -0.83943E-05165452   0.106E-01    0.362E-02
DAV:   6    -0.724261012501E+02    0.21878E-04   -0.51074E-05137460   0.664E-02    0.250E-02
DAV:   7    -0.724261109783E+02   -0.97282E-05   -0.15810E-05 83592   0.339E-02
  33 F= -.72426111E+02 E0= -.72426111E+02  d E =-.450478E-03  mag=     0.0000
       N       E                     dE             d eps       ncg     rms          rms(c)
DAV:   1    -0.724256023518E+02    0.49890E-03   -0.12668E-01165920   0.406E+00    0.241E-01
DAV:   2    -0.724265501851E+02   -0.94783E-03   -0.12509E-02162372   0.973E-01    0.205E-01
DAV:   3    -0.724261140179E+02    0.43617E-03   -0.76426E-04171420   0.293E-01    0.131E-01
DAV:   4    -0.724261204511E+02   -0.64332E-05   -0.15003E-04170688   0.104E-01    0.395E-02
DAV:   5    -0.724261707325E+02   -0.50281E-04   -0.24593E-05114388   0.601E-02    0.205E-02
DAV:   6    -0.724261576504E+02    0.13082E-04   -0.18407E-05 84040   0.402E-02    0.143E-02
DAV:   7    -0.724261630981E+02   -0.54477E-05   -0.66174E-06 80860   0.201E-02
  34 F= -.72426163E+02 E0= -.72426163E+02  d E =-.502598E-03  mag=     0.0000
       N       E                     dE             d eps       ncg     rms          rms(c)
DAV:   1    -0.724256752059E+02    0.48244E-03   -0.34238E-01157176   0.644E+00    0.457E-01
DAV:   2    -0.724273856069E+02   -0.17104E-02   -0.34591E-02157612   0.173E+00    0.407E-01
DAV:   3    -0.724264645847E+02    0.92102E-03   -0.24869E-03172344   0.535E-01    0.236E-01
DAV:   4    -0.724263241007E+02    0.14048E-03   -0.60455E-04170552   0.228E-01    0.846E-02
DAV:   5    -0.724264511706E+02   -0.12707E-03   -0.10454E-04165524   0.120E-01    0.467E-02
DAV:   6    -0.724264371034E+02    0.14067E-04   -0.60036E-05144244   0.635E-02    0.252E-02
DAV:   7    -0.724264304825E+02    0.66209E-05   -0.21558E-05 82168   0.355E-02
  35 F= -.72426430E+02 E0= -.72426430E+02  d E =-.267384E-03  mag=     0.0000
